<?xml version='1.0'?>
<!-- case='src' region='region0' time='283' index='283' -->
<VTKFile type='UnstructuredGrid' version='0.1' byte_order='LittleEndian' header_type='UInt64'>
  <UnstructuredGrid>
    <FieldData>
      <DataArray type='Float32' Name='TimeValue' NumberOfTuples='1' format='ascii'>
283
      </DataArray>
    </FieldData>
    <Piece NumberOfPoints='25012' NumberOfCells='12225'>
      <Points>
        <DataArray type='Float32' Name='Points' NumberOfComponents='3' format='ascii'>
-0.0206 0 -0.0005 -0.0190172 0 -0.0005
-0.0174976 0 -0.0005 -0.0160387 0 -0.0005
-0.0146381 0 -0.0005 -0.0132934 0 -0.0005
-0.0120025 0 -0.0005 -0.0107632 0 -0.0005
-0.00957337 0 -0.0005 -0.00843108 0 -0.0005
-0.00733443 0 -0.0005 -0.0062816 0 -0.0005
-0.00527083 0 -0.0005 -0.00430044 0 -0.0005
-0.00336883 0 -0.0005 -0.00247443 0 -0.0005
-0.00161577 0 -0.0005 -0.000791418 0 -0.0005
0 0 -0.0005 -0.0206 0.000318841 -0.0005
-0.0190172 0.000318841 -0.0005 -0.0174976 0.000318841 -0.0005
-0.0160387 0.000318841 -0.0005 -0.0146381 0.000318841 -0.0005
-0.0132934 0.000318841 -0.0005 -0.0120025 0.000318841 -0.0005
-0.0107632 0.000318841 -0.0005 -0.00957337 0.000318841 -0.0005
-0.00843108 0.000318841 -0.0005 -0.00733443 0.000318841 -0.0005
-0.0062816 0.000318841 -0.0005 -0.00527083 0.000318841 -0.0005
-0.00430044 0.000318841 -0.0005 -0.00336883 0.000318841 -0.0005
-0.00247443 0.000318841 -0.0005 -0.00161577 0.000318841 -0.0005
-0.000791418 0.000318841 -0.0005 0 0.000318841 -0.0005
-0.0206 0.000660566 -0.0005 -0.0190172 0.000660566 -0.0005
-0.0174976 0.000660566 -0.0005 -0.0160387 0.000660566 -0.0005
-0.0146381 0.000660566 -0.0005 -0.0132934 0.000660566 -0.0005
-0.0120025 0.000660566 -0.0005 -0.0107632 0.000660566 -0.0005
-0.00957337 0.000660566 -0.0005 -0.00843108 0.000660566 -0.0005
-0.00733443 0.000660566 -0.0005 -0.0062816 0.000660566 -0.0005
-0.00527083 0.000660566 -0.0005 -0.00430044 0.000660566 -0.0005
-0.00336883 0.000660566 -0.0005 -0.00247443 0.000660566 -0.0005
-0.00161577 0.000660566 -0.0005 -0.000791418 0.000660566 -0.0005
0 0.000660566 -0.0005 -0.0206 0.00102682 -0.0005
-0.0190172 0.00102682 -0.0005 -0.0174976 0.00102682 -0.0005
-0.0160387 0.00102682 -0.0005 -0.0146381 0.00102682 -0.0005
-0.0132934 0.00102682 -0.0005 -0.0120025 0.00102682 -0.0005
-0.0107632 0.00102682 -0.0005 -0.00957337 0.00102682 -0.0005
-0.00843108 0.00102682 -0.0005 -0.00733443 0.00102682 -0.0005
-0.0062816 0.00102682 -0.0005 -0.00527083 0.00102682 -0.0005
-0.00430044 0.00102682 -0.0005 -0.00336883 0.00102682 -0.0005
-0.00247443 0.00102682 -0.0005 -0.00161577 0.00102682 -0.0005
-0.000791418 0.00102682 -0.0005 0 0.00102682 -0.0005
-0.0206 0.00141936 -0.0005 -0.0190172 0.00141936 -0.0005
-0.0174976 0.00141936 -0.0005 -0.0160387 0.00141936 -0.0005
-0.0146381 0.00141936 -0.0005 -0.0132934 0.00141936 -0.0005
-0.0120025 0.00141936 -0.0005 -0.0107632 0.00141936 -0.0005
-0.00957337 0.00141936 -0.0005 -0.00843108 0.00141936 -0.0005
-0.00733443 0.00141936 -0.0005 -0.0062816 0.00141936 -0.0005
-0.00527083 0.00141936 -0.0005 -0.00430044 0.00141936 -0.0005
-0.00336883 0.00141936 -0.0005 -0.00247443 0.00141936 -0.0005
-0.00161577 0.00141936 -0.0005 -0.000791418 0.00141936 -0.0005
0 0.00141936 -0.0005 -0.0206 0.00184007 -0.0005
-0.0190172 0.00184007 -0.0005 -0.0174976 0.00184007 -0.0005
-0.0160387 0.00184007 -0.0005 -0.0146381 0.00184007 -0.0005
-0.0132934 0.00184007 -0.0005 -0.0120025 0.00184007 -0.0005
-0.0107632 0.00184007 -0.0005 -0.00957337 0.00184007 -0.0005
-0.00843108 0.00184007 -0.0005 -0.00733443 0.00184007 -0.0005
-0.0062816 0.00184007 -0.0005 -0.00527083 0.00184007 -0.0005
-0.00430044 0.00184007 -0.0005 -0.00336883 0.00184007 -0.0005
-0.00247443 0.00184007 -0.0005 -0.00161577 0.00184007 -0.0005
-0.000791418 0.00184007 -0.0005 0 0.00184007 -0.0005
-0.0206 0.00229098 -0.0005 -0.0190172 0.00229098 -0.0005
-0.0174976 0.00229098 -0.0005 -0.0160387 0.00229098 -0.0005
-0.0146381 0.00229098 -0.0005 -0.0132934 0.00229098 -0.0005
-0.0120025 0.00229098 -0.0005 -0.0107632 0.00229098 -0.0005
-0.00957337 0.00229098 -0.0005 -0.00843108 0.00229098 -0.0005
-0.00733443 0.00229098 -0.0005 -0.0062816 0.00229098 -0.0005
-0.00527083 0.00229098 -0.0005 -0.00430044 0.00229098 -0.0005
-0.00336883 0.00229098 -0.0005 -0.00247443 0.00229098 -0.0005
-0.00161577 0.00229098 -0.0005 -0.000791418 0.00229098 -0.0005
0 0.00229098 -0.0005 -0.0206 0.00277425 -0.0005
-0.0190172 0.00277425 -0.0005 -0.0174976 0.00277425 -0.0005
-0.0160387 0.00277425 -0.0005 -0.0146381 0.00277425 -0.0005
-0.0132934 0.00277425 -0.0005 -0.0120025 0.00277425 -0.0005
-0.0107632 0.00277425 -0.0005 -0.00957337 0.00277425 -0.0005
-0.00843108 0.00277425 -0.0005 -0.00733443 0.00277425 -0.0005
-0.0062816 0.00277425 -0.0005 -0.00527083 0.00277425 -0.0005
-0.00430044 0.00277425 -0.0005 -0.00336883 0.00277425 -0.0005
-0.00247443 0.00277425 -0.0005 -0.00161577 0.00277425 -0.0005
-0.000791418 0.00277425 -0.0005 0 0.00277425 -0.0005
-0.0206 0.00329221 -0.0005 -0.0190172 0.00329221 -0.0005
-0.0174976 0.00329221 -0.0005 -0.0160387 0.00329221 -0.0005
-0.0146381 0.00329221 -0.0005 -0.0132934 0.00329221 -0.0005
-0.0120025 0.00329221 -0.0005 -0.0107632 0.00329221 -0.0005
-0.00957337 0.00329221 -0.0005 -0.00843108 0.00329221 -0.0005
-0.00733443 0.00329221 -0.0005 -0.0062816 0.00329221 -0.0005
-0.00527083 0.00329221 -0.0005 -0.00430044 0.00329221 -0.0005
-0.00336883 0.00329221 -0.0005 -0.00247443 0.00329221 -0.0005
-0.00161577 0.00329221 -0.0005 -0.000791418 0.00329221 -0.0005
0 0.00329221 -0.0005 -0.0206 0.00384734 -0.0005
-0.0190172 0.00384734 -0.0005 -0.0174976 0.00384734 -0.0005
-0.0160387 0.00384734 -0.0005 -0.0146381 0.00384734 -0.0005
-0.0132934 0.00384734 -0.0005 -0.0120025 0.00384734 -0.0005
-0.0107632 0.00384734 -0.0005 -0.00957337 0.00384734 -0.0005
-0.00843108 0.00384734 -0.0005 -0.00733443 0.00384734 -0.0005
-0.0062816 0.00384734 -0.0005 -0.00527083 0.00384734 -0.0005
-0.00430044 0.00384734 -0.0005 -0.00336883 0.00384734 -0.0005
-0.00247443 0.00384734 -0.0005 -0.00161577 0.00384734 -0.0005
-0.000791418 0.00384734 -0.0005 0 0.00384734 -0.0005
-0.0206 0.00444232 -0.0005 -0.0190172 0.00444232 -0.0005
-0.0174976 0.00444232 -0.0005 -0.0160387 0.00444232 -0.0005
-0.0146381 0.00444232 -0.0005 -0.0132934 0.00444232 -0.0005
-0.0120025 0.00444232 -0.0005 -0.0107632 0.00444232 -0.0005
-0.00957337 0.00444232 -0.0005 -0.00843108 0.00444232 -0.0005
-0.00733443 0.00444232 -0.0005 -0.0062816 0.00444232 -0.0005
-0.00527083 0.00444232 -0.0005 -0.00430044 0.00444232 -0.0005
-0.00336883 0.00444232 -0.0005 -0.00247443 0.00444232 -0.0005
-0.00161577 0.00444232 -0.0005 -0.000791418 0.00444232 -0.0005
0 0.00444232 -0.0005 -0.0206 0.00508 -0.0005
-0.0190172 0.00508 -0.0005 -0.0174976 0.00508 -0.0005
-0.0160387 0.00508 -0.0005 -0.0146381 0.00508 -0.0005
-0.0132934 0.00508 -0.0005 -0.0120025 0.00508 -0.0005
-0.0107632 0.00508 -0.0005 -0.00957337 0.00508 -0.0005
-0.00843108 0.00508 -0.0005 -0.00733443 0.00508 -0.0005
-0.0062816 0.00508 -0.0005 -0.00527083 0.00508 -0.0005
-0.00430044 0.00508 -0.0005 -0.00336883 0.00508 -0.0005
-0.00247443 0.00508 -0.0005 -0.00161577 0.00508 -0.0005
-0.000791418 0.00508 -0.0005 0 0.00508 -0.0005
-0.0206 0.00565408 -0.0005 -0.0190172 0.00565408 -0.0005
-0.0174976 0.00565408 -0.0005 -0.0160387 0.00565408 -0.0005
-0.0146381 0.00565408 -0.0005 -0.0132934 0.00565408 -0.0005
-0.0120025 0.00565408 -0.0005 -0.0107632 0.00565408 -0.0005
-0.00957337 0.00565408 -0.0005 -0.00843108 0.00565408 -0.0005
-0.00733443 0.00565408 -0.0005 -0.0062816 0.00565408 -0.0005
-0.00527083 0.00565408 -0.0005 -0.00430044 0.00565408 -0.0005
-0.00336883 0.00565408 -0.0005 -0.00247443 0.00565408 -0.0005
-0.00161577 0.00565408 -0.0005 -0.000791418 0.00565408 -0.0005
0 0.00565408 -0.0005 -0.0206 0.0063539 -0.0005
-0.0190172 0.0063539 -0.0005 -0.0174976 0.0063539 -0.0005
-0.0160387 0.0063539 -0.0005 -0.0146381 0.0063539 -0.0005
-0.0132934 0.0063539 -0.0005 -0.0120025 0.0063539 -0.0005
-0.0107632 0.0063539 -0.0005 -0.00957337 0.0063539 -0.0005
-0.00843108 0.0063539 -0.0005 -0.00733443 0.0063539 -0.0005
-0.0062816 0.0063539 -0.0005 -0.00527083 0.0063539 -0.0005
-0.00430044 0.0063539 -0.0005 -0.00336883 0.0063539 -0.0005
-0.00247443 0.0063539 -0.0005 -0.00161577 0.0063539 -0.0005
-0.000791418 0.0063539 -0.0005 0 0.0063539 -0.0005
-0.0206 0.00720698 -0.0005 -0.0190172 0.00720698 -0.0005
-0.0174976 0.00720698 -0.0005 -0.0160387 0.00720698 -0.0005
-0.0146381 0.00720698 -0.0005 -0.0132934 0.00720698 -0.0005
-0.0120025 0.00720698 -0.0005 -0.0107632 0.00720698 -0.0005
-0.00957337 0.00720698 -0.0005 -0.00843108 0.00720698 -0.0005
-0.00733443 0.00720698 -0.0005 -0.0062816 0.00720698 -0.0005
-0.00527083 0.00720698 -0.0005 -0.00430044 0.00720698 -0.0005
-0.00336883 0.00720698 -0.0005 -0.00247443 0.00720698 -0.0005
-0.00161577 0.00720698 -0.0005 -0.000791418 0.00720698 -0.0005
0 0.00720698 -0.0005 -0.0206 0.00824691 -0.0005
-0.0190172 0.00824691 -0.0005 -0.0174976 0.00824691 -0.0005
-0.0160387 0.00824691 -0.0005 -0.0146381 0.00824691 -0.0005
-0.0132934 0.00824691 -0.0005 -0.0120025 0.00824691 -0.0005
-0.0107632 0.00824691 -0.0005 -0.00957337 0.00824691 -0.0005
-0.00843108 0.00824691 -0.0005 -0.00733443 0.00824691 -0.0005
-0.0062816 0.00824691 -0.0005 -0.00527083 0.00824691 -0.0005
-0.00430044 0.00824691 -0.0005 -0.00336883 0.00824691 -0.0005
-0.00247443 0.00824691 -0.0005 -0.00161577 0.00824691 -0.0005
-0.000791418 0.00824691 -0.0005 0 0.00824691 -0.0005
-0.0206 0.00951458 -0.0005 -0.0190172 0.00951458 -0.0005
-0.0174976 0.00951458 -0.0005 -0.0160387 0.00951458 -0.0005
-0.0146381 0.00951458 -0.0005 -0.0132934 0.00951458 -0.0005
-0.0120025 0.00951458 -0.0005 -0.0107632 0.00951458 -0.0005
-0.00957337 0.00951458 -0.0005 -0.00843108 0.00951458 -0.0005
-0.00733443 0.00951458 -0.0005 -0.0062816 0.00951458 -0.0005
-0.00527083 0.00951458 -0.0005 -0.00430044 0.00951458 -0.0005
-0.00336883 0.00951458 -0.0005 -0.00247443 0.00951458 -0.0005
-0.00161577 0.00951458 -0.0005 -0.000791418 0.00951458 -0.0005
0 0.00951458 -0.0005 -0.0206 0.0110599 -0.0005
[...]
      <CellData>
        <DataArray type='Float32' Name='epsilon' format='ascii'>
1086.11 2467.51 3645.54 4414.76 4812.17 4980.55
4972.22 4932.36 4837.76 4728.39 4620.49 4517.16
4425.49 4339.51 4269.04 4198.4 4151 4085.24
79.1869 262.723 438.669 584.482 691.151 762.92
804.742 829.98 846.783 856.866 866.581 873.736
882.995 890.97 900.632 910.058 918.85 933.019
23.708 50.3397 83.2996 112.496 136.909 156.199
170.145 179.904 186.372 190.792 193.484 195.627
196.856 198.409 199.266 201.091 201.303 206.39
17.0588 21.2943 30.0051 38.4959 46.2151 53.039
58.6205 63.2646 66.7552 69.6471 71.6133 73.3323
74.3218 75.3338 75.7545 76.3748 76.3331 77.5745
15.2882 16.097 18.552 21.5028 24.4418 27.2627
29.736 31.9835 33.8187 35.4797 36.7451 37.9278
38.7449 39.5745 40.0602 40.6382 40.905 41.3601
14.843 14.9042 15.5187 16.4543 17.6096 18.8292
19.9697 21.0769 22.0336 22.9483 23.6896 24.4159
24.9564 25.5274 25.8934 26.3466 26.5758 26.9643
14.7701 14.6429 14.7016 14.8629 15.2236 15.6844
16.1629 16.6724 17.1383 17.6109 18.0104 18.4208
18.7385 19.0879 19.3215 19.6212 19.7815 20.0626
14.767 14.5928 14.4733 14.4195 14.4433 14.5146
14.6475 14.8246 15.0022 15.2023 15.3793 15.576
15.7326 15.9149 16.0402 16.2067 16.2991 16.4684
14.7668 14.5926 14.4351 14.3028 14.2032 14.137
14.0972 14.0987 14.1106 14.1415 14.1783 14.2346
14.2793 14.3426 14.3854 14.4489 14.4878 14.5557
14.7661 14.5944 14.4321 14.2828 14.1466 14.0296
13.9256 13.8437 13.7744 13.7224 13.6771 13.6482
13.6204 13.6063 13.5892 13.5831 13.5736 13.582
14.7658 14.5946 14.4323 14.2806 14.137 14.0051
13.8816 13.7705 13.6679 13.5777 13.4938 13.4219
13.3537 13.2971 13.2406 13.1972 13.1473 13.1179
14.7657 14.5944 14.4322 14.2801 14.1357 14.0007
13.8728 13.754 13.6417 13.5385 13.4409 13.3523
13.2677 13.1922 13.1185 13.0549 12.9895 12.9368
14.7657 14.5941 14.4321 14.2796 14.1353 13.9995
13.8707 13.7496 13.6347 13.5271 13.4247 13.3294
13.2383 13.1542 13.0731 12.999 12.9266 12.8616
14.7657 14.594 14.4319 14.2792 14.1349 13.9987
13.8698 13.7481 13.6326 13.5236 13.4201 13.3224
13.2294 13.1417 13.0581 12.9795 12.9043 12.8337
14.7657 14.5938 14.4317 14.2789 14.1345 13.9981
13.8691 13.7471 13.6315 13.5221 13.4183 13.32
13.2265 13.1379 13.0536 12.9737 12.8975 12.8253
14.7657 14.5938 14.4316 14.2786 14.1341 13.9976
13.8685 13.7463 13.6306 13.5211 13.4171 13.3185
13.2249 13.136 13.0515 12.9713 12.8948 12.8222
14.7657 14.5937 14.4315 14.2784 14.1338 13.9972
13.868 13.7457 13.6299 13.5202 13.4162 13.3174
13.2237 13.1347 13.0501 12.9696 12.8931 12.8203
14.7657 14.5937 14.4314 14.2783 14.1336 13.9969
13.8677 13.7453 13.6294 13.5196 13.4155 13.3167
13.2228 13.1337 13.049 12.9685 12.8919 12.819
14.7657 14.5937 14.4314 14.2782 14.1336 13.9969
13.8675 13.7451 13.6292 13.5194 13.4152 13.3163
13.2224 13.1333 13.0485 12.9679 12.8913 12.8184
14.7657 14.5937 14.4315 14.2783 14.1337 13.997
13.8677 13.7453 13.6294 13.5196 13.4154 13.3166
13.2227 13.1336 13.0489 12.9683 12.8917 12.8188
14.7657 14.5937 14.4316 14.2785 14.1339 13.9972
13.868 13.7457 13.63 13.5202 13.4163 13.3176
13.2241 13.1352 13.051 12.9708 12.8948 12.8224
14.7658 14.5938 14.4317 14.2786 14.1343 13.9977
13.869 13.7472 13.6325 13.524 13.4219 13.3252
13.2344 13.1482 13.0676 12.9907 12.9192 12.8504
14.766 14.5936 14.432 14.2789 14.1361 14.0021
13.8782 13.7628 13.6573 13.5595 13.4707 13.3883
13.3141 13.2446 13.1828 13.1237 13.0729 13.0213
14.7664 14.5919 14.4339 14.2872 14.1626 14.0553
13.9688 13.8977 13.8459 13.8048 13.7783 13.758
13.7482 13.7415 13.7415 13.7455 13.7516 13.7513
14.7635 14.5927 14.4798 14.4111 14.4198 14.4675
14.5528 14.67 14.8168 14.9612 15.1237 15.2711
15.4319 15.5683 15.7195 15.8373 15.978 16.0719
14.7559 14.7332 14.9889 15.3353 15.9215 16.5509
17.2338 17.878 18.5377 19.1217 19.7127 20.2096
20.72 21.1248 21.5587 21.8755 22.2452 22.4805
15.1561 15.9275 18.0403 20.4321 22.9267 25.2658
27.5468 29.5525 31.4906 33.1025 34.6855 35.9137
37.1756 38.0656 39.0608 39.6723 40.4608 40.8521
17.6818 25.6331 36.6751 46.5427 55.8658 64.2726
72.1009 78.7408 84.8016 89.5901 94.0126 97.1742
100.312 102.189 104.451 105.414 107.132 107.488
45.5096 105.214 164.441 217.229 267.838 313.448
353.658 386.102 413.216 433.649 450.586 462.693
472.88 479.758 486.797 490.285 496.129 497.462
632.296 1081.11 1534.74 1880.99 2183.47 2431.77
2631.53 2773.03 2876.15 2932.21 2969.07 2970.17
2963.16 2946.23 2918.32 2885.07 2849.27 2811.95
0.168483 0.169423 0.293557 0.429625 0.562026 0.684277
0.794781 0.893825 0.982686 1.06811 1.15521 1.24486
1.33973 1.44223 1.55386 1.67501 1.8057 1.94676
2.10301 2.28918 2.52917 2.82659 3.17498 3.57534
4.03423 4.56078 5.16549 5.85883 6.65026 7.54565
8.54689 9.65787 10.88 12.2118 13.6529 15.2014
16.8567 18.6175 20.4833 22.454 24.5306 26.7155
29.0133 31.4313 33.9809 36.6793 39.5521 42.6368
45.8645 49.2408 52.7677 56.4516 60.2955 64.3047
68.4832 72.8359 77.3669 82.0807 86.9814 92.0733
97.3598 102.845 108.532 114.423 120.522 126.831
133.352 140.085 147.033 154.195 161.572 169.163
176.967 184.981 193.204 201.633 210.264 219.092
228.113 237.321 246.708 256.27 265.996 275.879
285.91 296.078 306.372 316.782 327.294 337.896
348.572 359.307 370.084 380.883 391.685 402.465
413.198 423.857 434.414 444.845 455.146 465.351
475.487 485.452 495.279 504.938 514.421 523.708
532.783 541.63 550.232 558.574 566.639 574.413
581.88 589.028 595.842 602.309 608.418 614.157
619.514 624.481 629.046 633.203 636.944 640.264
643.157 645.62 647.649 649.24 650.383 651.114
651.48 651.313 650.664 649.549 648.107 646.317
644.029 641.354 638.276 634.812 630.972 626.769
622.216 617.323 612.102 606.568 600.734 594.617
588.232 581.595 574.721 567.629 560.334 552.854
545.205 537.405 529.472 521.422 513.275 505.052
496.779 488.508 480.437 474.287 470.87 467.781
464.691 461.573 458.425 455.25 452.044 448.794
445.467 441.983 438.185 433.598 427.329 402.993
0.655 0.388008 0.352598 0.36669 0.400833 0.445918
0.498624 0.558366 0.626082 0.703667 0.792463 0.893092
1.00695 1.13578 1.28139 1.44562 1.63046 1.83829
2.07197 2.33407 2.63217 2.97078 3.35114 3.77492
4.24468 4.76304 5.33174 5.95019 6.61359 7.31227
8.05519 8.84161 9.67082 10.5413 11.4531 12.4047
13.3938 14.4215 15.4892 16.5987 17.7525 18.9534
20.2049 21.5104 22.8739 24.2988 25.788 27.3416
28.9546 30.6304 32.37 34.1754 36.0481 37.9896
40.0015 42.0852 44.242 46.4733 48.7802 51.1637
53.6248 56.1643 58.783 61.4815 64.2602 67.1194
70.0592 73.0797 76.1805 79.3615 82.6218 85.961
89.3778 92.8713 96.44 100.082 103.797 107.581
111.432 115.349 119.327 123.365 127.46 131.606
135.802 140.042 144.322 148.638 152.985 157.357
161.749 166.154 170.565 174.975 179.377 183.762
188.123 192.453 196.748 201.011 205.256 209.518
213.813 218.04 222.215 226.326 230.368 234.335
238.219 242.016 245.718 249.318 252.812 256.193
259.455 262.593 265.6 268.473 271.206 273.795
276.234 278.52 280.649 282.617 284.422 286.06
287.53 288.829 289.956 290.91 291.689 292.297
292.732 292.971 293.022 292.899 292.627 292.199
291.583 290.803 289.857 288.749 287.483 286.064
284.494 282.779 280.923 278.931 276.808 274.56
272.192 269.71 267.12 264.43 261.644 258.769
255.813 252.781 249.68 246.519 243.303 240.041
236.745 233.434 230.179 227.307 224.984 222.795
220.627 218.459 216.29 214.121 211.954 209.793
207.635 205.483 203.322 201.19 199.001 195.308
1.4187 0.695548 0.549342 0.520265 0.531273 0.564376
0.61378 0.677319 0.754767 0.847195 0.956014 1.0826
1.22833 1.39453 1.58247 1.7935 2.02909 2.29104
2.58166 2.90394 3.25759 3.64188 4.05652 4.50096
4.97455 5.4766 6.00666 6.56511 7.15453 7.78066
8.4385 9.12793 9.84976 10.6054 11.383 12.1868
13.0257 13.9016 14.8161 15.7709 16.7675 17.8074
18.892 20.0229 21.2013 22.4284 23.705 25.0316
26.4079 27.8351 29.3144 30.8467 32.4331 34.0746
35.7721 37.5267 39.3392 41.2103 43.1409 45.1315
47.1827 49.2949 51.4686 53.7042 56.0019 58.3619
60.7842 63.2688 65.8155 68.4239 71.0936 73.8241
76.6146 79.4643 82.372 85.3367 88.357 91.4313
94.558 97.7352 100.961 104.233 107.548 110.905
114.299 117.729 121.191 124.681 128.196 131.731
135.283 138.847 142.418 145.993 149.566 153.134
156.692 160.238 163.772 167.295 170.809 174.32
177.81 181.258 184.662 188.016 191.314 194.552
197.723 200.823 203.846 206.788 209.643 212.406
215.072 217.638 220.098 222.448 224.685 226.803
228.8 230.673 232.417 234.031 235.511 236.856
238.064 239.132 240.06 240.846 241.49 241.992
242.35 242.547 242.601 242.518 242.302 241.951
241.456 240.825 240.058 239.159 238.132 236.978
235.702 234.308 232.798 231.177 229.449 227.619
225.691 223.671 221.562 219.371 217.102 214.76
212.352 209.882 207.356 204.779 202.158 199.499
196.812 194.11 191.434 188.901 186.571 184.325
182.106 179.899 177.701 175.513 173.341 171.189
169.064 166.981 164.954 163.065 161.32 159.581
2.22146 0.998814 0.764552 0.708637 0.711363 0.744941
0.800566 0.875362 0.968855 1.08168 1.21494 1.36976
1.54715 1.74788 1.9725 2.22139 2.49482 2.79305
3.11626 3.46437 3.83674 4.23258 4.65135 5.09278
5.55695 6.04436 6.55595 7.09305 7.65729 8.25001
8.87112 9.52089 10.1994 10.9058 11.6493 12.4315
13.2504 14.1072 15.0029 15.9392 16.917 17.9367
18.9989 20.1046 21.2541 22.4478 23.6849 24.9668
26.2957 27.6726 29.0986 30.5746 32.1015 33.6802
35.3118 36.9971 38.737 40.5323 42.3838 44.2921
46.2579 48.2816 50.3639 52.5053 54.7061 56.9665
59.287 61.6675 64.1081 66.6086 69.1689 71.7886
74.4672 77.2041 79.9985 82.8494 85.7557 88.7162
91.7294 94.7936 97.907 101.068 104.273 107.521
110.809 114.134 117.493 120.883 124.3 127.74
131.201 134.677 138.166 141.662 145.163 148.664
152.163 155.655 159.14 162.616 166.08 169.526
172.942 176.32 179.654 182.939 186.169 189.338
192.441 195.474 198.43 201.304 204.091 206.787
209.386 211.884 214.276 216.558 218.726 220.776
222.705 224.509 226.185 227.731 229.143 230.42
231.56 232.561 233.422 234.142 234.72 235.157
235.446 235.575 235.581 235.442 235.167 234.757
234.208 233.524 232.707 231.762 230.689 229.494
228.18 226.749 225.207 223.557 221.803 219.951
218.005 215.97 213.851 211.653 209.38 207.04
204.636 202.174 199.66 197.099 194.497 191.861
189.199 186.523 183.861 181.266 178.77 176.331
173.92 171.527 169.15 166.793 164.459 162.157
159.898 157.699 155.589 153.641 151.882 150.327
2.93606 1.28779 0.988079 0.914577 0.913355 0.950582
1.01468 1.10161 1.21029 1.34085 1.49389 1.67001
1.8696 2.09271 2.33909 2.60828 2.89969 3.21269
3.54667 3.9011 4.27553 4.66974 5.08389 5.51849
5.97445 6.45297 6.95547 7.48344 8.03838 8.62156
9.23406 9.877 10.5516 11.2595 12.0032 12.7837
13.6013 14.4569 15.3512 16.2847 17.2582 18.2732
19.3304 20.4307 21.5749 22.7641 23.9998 25.2827
26.6133 27.9922 29.4206 30.8995 32.43 34.0131
35.6499 37.3414 39.0887 40.8929 42.7551 44.6762
46.6569 48.6978 50.7999 52.9637 55.1901 57.4795
59.8325 62.2495 64.7307 67.2764 69.8866 72.5612
75.3 78.1026 80.9684 83.8968 86.8867 89.9371
93.0465 96.2136 99.4366 102.713 106.042 109.42
112.844 116.312 119.82 123.366 126.946 130.555
134.19 137.848 141.523 145.211 148.909 152.612
156.316 160.016 163.709 167.388 171.048 174.683
178.284 181.845 185.359 188.821 192.223 195.561
198.828 202.017 205.125 208.143 211.068 213.894
216.614 219.225 221.721 224.098 226.352 228.477
230.471 232.33 234.051 235.63 237.065 238.355
239.496 240.488 241.329 242.019 242.556 242.941
243.158 243.226 243.152 242.926 242.554 242.035
241.371 240.565 239.619 238.537 237.322 235.978
234.51 232.921 231.216 229.399 227.476 225.451
223.33 221.119 218.821 216.444 213.992 211.472
208.888 206.248 203.556 200.82 198.044 195.236
192.403 189.558 186.718 183.914 181.165 178.457
175.777 173.12 170.486 167.88 165.306 162.776
160.302 157.906 155.621 153.516 151.61 149.88
3.53059 1.56784 1.21409 1.12654 1.12309 1.16427
1.23603 1.33307 1.45351 1.59688 1.76317 1.95241
2.1644 2.39865 2.65445 2.93091 3.22716 3.54243
3.87615 4.22804 4.59815 4.98686 5.3949 5.82333
6.27345 6.74671 7.24466 7.76884 8.32072 8.90168
9.51306 10.1562 10.8323 11.5429 12.2893 13.0725
13.8933 14.7527 15.6515 16.5906 17.571 18.5938
19.6599 20.7704 21.9263 23.1286 24.3786 25.6773
27.0255 28.4245 29.8755 31.3797 32.9383 34.5527
36.2242 37.9541 39.7436 41.594 43.5063 45.4819
47.5222 49.6285 51.8019 54.0436 56.3545 58.7357
61.1881 63.7122 66.3089 68.9785 71.7215 74.538
77.428 80.3915 83.4279 86.5367 89.7172 92.9682
96.2885 99.6766 103.13 106.648 110.227 113.866
117.56 121.306 125.102 128.944 132.827 136.748
140.701 144.683 148.688 152.712 156.749 160.794
164.842 168.887 172.923 176.944 180.941 184.909
188.839 192.725 196.559 200.334 204.043 207.681
211.238 214.71 218.089 221.369 224.543 227.605
230.55 233.371 236.064 238.622 241.042 243.319
245.448 247.425 249.248 250.913 252.416 253.757
254.933 255.943 256.785 257.458 257.964 258.294
258.441 258.438 258.268 257.932 257.434 256.776
255.959 254.987 253.864 252.593 251.178 249.625
247.937 246.119 244.178 242.118 239.944 237.664
235.281 232.804 230.237 227.587 224.86 222.062
219.201 216.282 213.312 210.297 207.245 204.162
201.055 197.936 194.819 191.723 188.661 185.633
182.634 179.661 176.719 173.812 170.947 168.137
165.395 162.747 160.225 157.888 155.742 153.707
4.00322 1.82329 1.43083 1.33291 1.32795 1.37211
1.44936 1.55326 1.68115 1.83194 2.00509 2.20016
2.41657 2.6536 2.91035 3.18595 3.47961 3.79077
4.11919 4.46495 4.82851 5.21064 5.6124 6.03507
6.48006 6.94889 7.44308 7.96414 8.5135 9.09259
9.70275 10.3453 11.0216 11.7328 12.4801 13.2648
14.0878 14.9502 15.8532 16.7978 17.7852 18.8165
19.8929 21.0156 22.1859 23.4051 24.6744 25.9951
27.3687 28.7966 30.2802 31.8213 33.4213 35.0819
36.8047 38.5914 40.4436 42.363 44.3513 46.4101
48.5412 50.7462 53.0268 55.3844 57.8206 60.3368
62.9341 65.6137 68.3767 71.2239 74.156 77.1735
80.2766 83.4654 86.7397 90.099 93.5427 97.0697
100.679 104.368 108.136 111.98 115.898 119.886
123.941 128.06 132.239 136.474 140.759 145.09
149.462 153.869 158.306 162.766 167.244 171.733
176.226 180.716 185.195 189.657 194.092 198.492
202.85 207.158 211.406 215.588 219.695 223.719
227.653 231.488 235.217 238.833 242.328 245.696
248.929 252.021 254.967 257.759 260.394 262.865
265.169 267.3 269.256 271.032 272.627 274.036
275.26 276.296 277.143 277.8 278.269 278.534
278.612 278.512 278.225 277.755 277.105 276.276
275.272 274.098 272.756 271.253 269.592 267.78
265.821 263.722 261.488 259.127 256.644 254.046
251.34 248.532 245.63 242.642 239.573 236.431
233.223 229.957 226.64 223.278 219.88 216.452
213.003 209.542 206.081 202.635 199.215 195.824
192.464 189.135 185.844 182.596 179.4 176.269
173.219 170.276 167.468 164.848 162.404 160.012
4.40977 2.06176 1.63555 1.52668 1.51863 1.5633
1.64298 1.75008 1.88118 2.03461 2.20939 2.40478
2.62004 2.85437 3.10697 3.37715 3.66436 3.96835
4.28918 4.62723 4.9832 5.35806 5.75298 6.16928
6.60837 7.07172 7.5608 8.07711 8.62207 9.1971
9.80356 10.4428 11.1162 11.8251 12.5704 13.3537
14.1763 15.0394 15.9444 16.8927 17.8855 18.9243
20.0104 21.1453 22.3307 23.5681 24.8589 26.2048
27.6076 29.0694 30.5919 32.1771 33.8272 35.544
37.3296 39.1863 41.116 43.121 45.2035 47.3656
49.6095 51.9374 54.3514 56.8535 59.4458 62.1299
64.9078 67.7809 70.7508 73.8185 76.9853 80.2519
83.6187 87.0861 90.6541 94.3223 98.09 101.956
105.919 109.978 114.13 118.372 122.701 127.115
131.609 136.179 140.821 145.529 150.298 155.122
159.995 164.911 169.862 174.842 179.842 184.856
189.875 194.89 199.892 204.874 209.824 214.734
219.595 224.396 229.13 233.787 238.357 242.832
247.202 251.458 255.592 259.596 263.46 267.178
270.742 274.143 277.376 280.434 283.31 286
288.499 290.801 292.902 294.8 296.49 297.972
299.242 300.299 301.144 301.775 302.189 302.376
302.364 302.143 301.714 301.082 300.247 299.215
297.989 296.574 294.975 293.197 291.247 289.131
286.856 284.427 281.853 279.14 276.297 273.33
270.248 267.059 263.77 260.389 256.925 253.385
249.778 246.111 242.393 238.632 234.834 231.009
227.165 223.311 219.457 215.617 211.799 208.01
204.254 200.537 196.863 193.241 189.68 186.196
182.803 179.528 176.398 173.454 170.672 167.897
5.26157 2.37321 1.84956 1.71046 1.69132 1.73127
1.80927 1.91578 2.04633 2.19859 2.3712 2.56319
2.77377 3.00219 3.24783 3.51022 3.78908 4.0844
4.39646 4.72582 5.07329 5.43994 5.82696 6.23563
6.66725 7.12306 7.60471 8.1137 8.6515 9.21955
9.81931 10.4522 11.1198 11.8238 12.5651 13.3451
14.1651 15.0268 15.9316 16.8812 17.8772 18.9215
20.0162 21.1635 22.3647 23.6217 24.9362 26.3099
27.7454 29.2453 30.8121 32.4482 34.1562 35.9386
37.7979 39.7369 41.7582 43.8646 46.0587 48.3435
50.7216 53.1957 55.7686 58.4429 61.221 64.1054
67.0984 70.202 73.418 76.7481 80.1937 83.7559
87.4355 91.2329 95.1481 99.181 103.331 107.596
111.975 116.467 121.068 125.775 130.585 135.494
140.498 145.59 150.767 156.021 161.347 166.737
172.184 177.68 183.217 188.787 194.38 199.988
205.6 211.206 216.796 222.361 227.888 233.367
238.788 244.139 249.411 254.592 259.672 264.642
269.489 274.205 278.78 283.203 287.466 291.56
295.475 299.205 302.742 306.077 309.206 312.121
314.817 317.29 319.535 321.548 323.326 324.867
326.169 327.231 328.054 328.636 328.97 329.063
328.925 328.553 327.95 327.12 326.066 324.793
323.306 321.61 319.712 317.619 315.337 312.873
310.236 307.434 304.474 301.365 298.115 294.734
291.23 287.613 283.89 280.072 276.167 272.185
268.134 264.023 259.861 255.656 251.418 247.154
242.874 238.586 234.301 230.029 225.782 221.565
217.386 213.25 209.167 205.143 201.192 197.326
193.563 189.926 186.442 183.144 179.995 176.825
6.29957 2.71001 2.0575 1.87636 1.84014 1.87092
1.94362 2.04633 2.17334 2.32165 2.48951 2.67577
2.8796 3.10038 3.33761 3.59103 3.86056 4.14639
4.44892 4.76869 5.10651 5.46365 5.84143 6.2413
6.66495 7.11363 7.58823 8.09011 8.6207 9.18147
9.77393 10.3996 11.06 11.7566 12.4908 13.2646
14.0796 14.9377 15.8409 16.7912 17.7905 18.8408
19.944 21.1024 22.3182 23.5941 24.9328 26.3378
27.8107 29.3548 30.9731 32.6689 34.4451 36.3048
38.2514 40.2879 42.4178 44.6445 46.9713 49.4017
51.939 54.5868 57.3482 60.2266 63.225 66.3465
69.5937 72.9693 76.4755 80.1144 83.8877 87.7966
91.8422 96.025 100.345 104.802 109.395 114.122
118.982 123.972 129.089 134.329 139.688 145.161
150.742 156.426 162.206 168.075 174.025 180.048
186.134 192.276 198.462 204.683 210.929 217.187
223.448 229.699 235.928 242.123 248.273 254.365
260.386 266.324 272.168 277.905 283.524 289.012
294.359 299.553 304.583 309.438 314.108 318.583
322.854 326.912 330.748 334.355 337.727 340.855
343.735 346.361 348.729 350.836 352.677 354.252
355.558 356.595 357.363 357.861 358.085 358.046
357.743 357.18 356.363 355.295 353.98 352.424
350.633 348.614 346.374 343.921 341.263 338.409
335.367 332.147 328.758 325.21 321.512 317.674
313.707 309.621 305.425 301.131 296.747 292.284
287.751 283.159 278.517 273.835 269.121 264.385
259.636 254.883 250.137 245.407 240.703 236.035
231.41 226.835 222.32 217.874 213.509 209.24
205.084 201.064 197.201 193.525 189.989 186.415
7.31487 3.02579 2.24208 2.01612 1.96025 1.97926
2.04416 2.14073 2.26208 2.40453 2.56597 2.7451
2.94107 3.15331 3.38144 3.62524 3.88479 4.16065
4.45358 4.76479 5.09484 5.44435 5.81431 6.2059
6.62019 7.05823 7.52153 8.01185 8.53079 9.07994
9.66094 10.2755 10.9252 11.612 12.3377 13.1045
13.9145 14.7697 15.6723 16.6247 17.6291 18.6881
19.8043 20.9804 22.2194 23.5242 24.8976 26.3416
27.8599 29.4576 31.1393 32.9085 34.7687 36.7237
38.7773 40.9334 43.1962 45.5697 48.0581 50.6656
53.3962 56.254 59.2431 62.3674 65.6304 69.0359
72.587 76.2867 80.1377 84.1422 88.3023 92.6193
97.0942 101.727 106.519 111.468 116.573 121.832
127.243 132.803 138.507 144.351 150.33 156.438
162.667 169.011 175.461 182.01 188.647 195.364
202.148 208.991 215.879 222.802 229.747 236.701
243.651 250.584 257.486 264.344 271.143 277.87
284.512 291.053 297.482 303.784 309.947 315.956
321.801 327.467 332.944 338.219 343.281 348.12
352.725 357.088 361.198 365.048 368.631 371.94
374.968 377.711 380.164 382.324 384.187 385.752
387.018 387.984 388.652 389.02 389.091 388.868
388.352 387.551 386.472 385.118 383.494 381.607
379.465 377.076 374.448 371.59 368.512 365.223
361.733 358.053 354.194 350.166 345.981 341.649
337.182 332.592 327.888 323.083 318.188 313.213
308.169 303.067 297.917 292.73 287.514 282.281
277.039 271.798 266.568 261.359 256.181 251.044
245.956 240.926 235.964 231.08 226.287 221.6