<?xml version='1.0'?>
<!-- patch='inlet' time='283' index='283' -->
<VTKFile type='PolyData' version='0.1' byte_order='LittleEndian' header_type='UInt64'>
  <PolyData>
    <FieldData>
      <DataArray type='Float32' Name='TimeValue' NumberOfTuples='1' format='ascii'>
283
      </DataArray>
    </FieldData>
    <Piece NumberOfPoints='62' NumberOfPolys='30'>
      <Points>
        <DataArray type='Float32' Name='Points' NumberOfComponents='3' format='ascii'>
-0.0206 0 -0.0005 -0.0206 0 0.0005
-0.0206 0.000318841 0.0005 -0.0206 0.000318841 -0.0005
-0.0206 0.000660566 0.0005 -0.0206 0.000660566 -0.0005
-0.0206 0.00102682 0.0005 -0.0206 0.00102682 -0.0005
-0.0206 0.00141936 0.0005 -0.0206 0.00141936 -0.0005
-0.0206 0.00184007 0.0005 -0.0206 0.00184007 -0.0005
-0.0206 0.00229098 0.0005 -0.0206 0.00229098 -0.0005
-0.0206 0.00277425 0.0005 -0.0206 0.00277425 -0.0005
-0.0206 0.00329221 0.0005 -0.0206 0.00329221 -0.0005
-0.0206 0.00384734 0.0005 -0.0206 0.00384734 -0.0005
-0.0206 0.00444232 0.0005 -0.0206 0.00444232 -0.0005
-0.0206 0.00508 0.0005 -0.0206 0.00508 -0.0005
-0.0206 0.00565408 0.0005 -0.0206 0.00565408 -0.0005
-0.0206 0.0063539 0.0005 -0.0206 0.0063539 -0.0005
-0.0206 0.00720698 0.0005 -0.0206 0.00720698 -0.0005
-0.0206 0.00824691 0.0005 -0.0206 0.00824691 -0.0005
-0.0206 0.00951458 0.0005 -0.0206 0.00951458 -0.0005
-0.0206 0.0110599 0.0005 -0.0206 0.0110599 -0.0005
-0.0206 0.0129437 0.0005 -0.0206 0.0129437 -0.0005
-0.0206 0.01524 0.0005 -0.0206 0.01524 -0.0005
-0.0206 0.0169211 0.0005 -0.0206 0.0169211 -0.0005
-0.0206 0.0183845 0.0005 -0.0206 0.0183845 -0.0005
-0.0206 0.0196585 0.0005 -0.0206 0.0196585 -0.0005
-0.0206 0.0207676 0.0005 -0.0206 0.0207676 -0.0005
-0.0206 0.0217332 0.0005 -0.0206 0.0217332 -0.0005
-0.0206 0.0225737 0.0005 -0.0206 0.0225737 -0.0005
-0.0206 0.0233054 0.0005 -0.0206 0.0233054 -0.0005
-0.0206 0.0239424 0.0005 -0.0206 0.0239424 -0.0005
-0.0206 0.024497 0.0005 -0.0206 0.024497 -0.0005
-0.0206 0.0249797 0.0005 -0.0206 0.0249797 -0.0005
-0.0206 0.0254 0.0005 -0.0206 0.0254 -0.0005
        </DataArray>
      </Points>
      <Polys>
        <DataArray type='Int32' Name='connectivity' format='ascii'>
0 1 2 3 3 2
4 5 5 4 6 7
7 6 8 9 9 8
10 11 11 10 12 13
13 12 14 15 15 14
16 17 17 16 18 19
19 18 20 21 21 20
22 23 23 22 24 25
25 24 26 27 27 26
28 29 29 28 30 31
31 30 32 33 33 32
34 35 35 34 36 37
37 36 38 39 39 38
40 41 41 40 42 43
43 42 44 45 45 44
46 47 47 46 48 49
49 48 50 51 51 50
52 53 53 52 54 55
55 54 56 57 57 56
58 59 59 58 60 61
        </DataArray>
        <DataArray type='Int32' Name='offsets' format='ascii'>
4 8 12 16 20 24
28 32 36 40 44 48
52 56 60 64 68 72
76 80 84 88 92 96
100 104 108 112 116 120
        </DataArray>
      </Polys>
      <CellData>
        <DataArray type='Float32' Name='epsilon' format='ascii'>
14.855 14.855 14.855 14.855 14.855 14.855
14.855 14.855 14.855 14.855 14.855 14.855
14.855 14.855 14.855 14.855 14.855 14.855
14.855 14.855 14.855 14.855 14.855 14.855
14.855 14.855 14.855 14.855 14.855 14.855
        </DataArray>
        <DataArray type='Float32' Name='k' format='ascii'>
0.375 0.375 0.375 0.375 0.375 0.375
0.375 0.375 0.375 0.375 0.375 0.375
0.375 0.375 0.375 0.375 0.375 0.375
0.375 0.375 0.375 0.375 0.375 0.375
0.375 0.375 0.375 0.375 0.375 0.375
        </DataArray>
        <DataArray type='Float32' Name='nut' format='ascii'>
0.000851986 0.000851986 0.000851986 0.000851986 0.000851986 0.000851986
0.000851986 0.000851986 0.000851986 0.000851986 0.000851986 0.000851986
0.000851986 0.000851986 0.000851986 0.000851986 0.000851986 0.000851986
0.000851986 0.000851986 0.000851986 0.000851986 0.000851986 0.000851986
0.000851986 0.000851986 0.000851986 0.000851986 0.000851986 0.000851986
        </DataArray>
        <DataArray type='Float32' Name='p' format='ascii'>
-1.71725 -4.86314 -5.24189 -5.10834 -5.0969 -5.15742
-5.22049 -5.2766 -5.32881 -5.37818 -5.42456 -5.46419
-5.50058 -5.5384 -5.57614 -5.6115 -5.6411 -5.65995
-5.66031 -5.63611 -5.60185 -5.55955 -5.51258 -5.46346
-5.41214 -5.36561 -5.38306 -5.52585 -5.25482 -2.19585
        </DataArray>
        <DataArray type='Float32' Name='U' NumberOfComponents='3' format='ascii'>
10 0 0 10 0 0
10 0 0 10 0 0
10 0 0 10 0 0
10 0 0 10 0 0
10 0 0 10 0 0
10 0 0 10 0 0
10 0 0 10 0 0
10 0 0 10 0 0
10 0 0 10 0 0
10 0 0 10 0 0
10 0 0 10 0 0
10 0 0 10 0 0
10 0 0 10 0 0
10 0 0 10 0 0
10 0 0 10 0 0
        </DataArray>
      </CellData>
      <PointData>
        <DataArray type='Float32' Name='epsilon' format='ascii'>
14.855 14.855 14.855 14.855 14.855 14.855
14.855 14.855 14.855 14.855 14.855 14.855
14.855 14.855 14.855 14.855 14.855 14.855
14.855 14.855 14.855 14.855 14.855 14.855
14.855 14.855 14.855 14.855 14.855 14.855
14.855 14.855 14.855 14.855 14.855 14.855
14.855 14.855 14.855 14.855 14.855 14.855
14.855 14.855 14.855 14.855 14.855 14.855
14.855 14.855 14.855 14.855 14.855 14.855
14.855 14.855 14.855 14.855 14.855 14.855
14.855 14.855
        </DataArray>
        <DataArray type='Float32' Name='k' format='ascii'>
0.375 0.375 0.375 0.375 0.375 0.375
0.375 0.375 0.375 0.375 0.375 0.375
0.375 0.375 0.375 0.375 0.375 0.375
0.375 0.375 0.375 0.375 0.375 0.375
0.375 0.375 0.375 0.375 0.375 0.375
0.375 0.375 0.375 0.375 0.375 0.375
0.375 0.375 0.375 0.375 0.375 0.375
0.375 0.375 0.375 0.375 0.375 0.375
0.375 0.375 0.375 0.375 0.375 0.375
0.375 0.375 0.375 0.375 0.375 0.375
0.375 0.375
        </DataArray>
        <DataArray type='Float32' Name='nut' format='ascii'>
0.000851986 0.000851986 0.000851986 0.000851986 0.000851986 0.000851986
0.000851986 0.000851986 0.000851986 0.000851986 0.000851986 0.000851986
0.000851986 0.000851986 0.000851986 0.000851986 0.000851986 0.000851986
0.000851986 0.000851986 0.000851986 0.000851986 0.000851986 0.000851986
0.000851986 0.000851986 0.000851986 0.000851986 0.000851986 0.000851986
0.000851986 0.000851986 0.000851986 0.000851986 0.000851986 0.000851986
0.000851986 0.000851986 0.000851986 0.000851986 0.000851986 0.000851986
0.000851986 0.000851986 0.000851986 0.000851986 0.000851986 0.000851986
0.000851986 0.000851986 0.000851986 0.000851986 0.000851986 0.000851986
0.000851986 0.000851986 0.000851986 0.000851986 0.000851986 0.000851986
0.000851986 0.000851986
        </DataArray>
        <DataArray type='Float32' Name='p' format='ascii'>
-1.71725 -1.71725 -3.28484 -3.28484 -5.05178 -5.05178
-5.17541 -5.17541 -5.10265 -5.10265 -5.12699 -5.12699
-5.18876 -5.18876 -5.24835 -5.24835 -5.3025 -5.3025
-5.35328 -5.35328 -5.40115 -5.40115 -5.44465 -5.44465
-5.48187 -5.48187 -5.51879 -5.51879 -5.55639 -5.55639
-5.59283 -5.59283 -5.62533 -5.62533 -5.64983 -5.64983
-5.66012 -5.66012 -5.64672 -5.64672 -5.61814 -5.61814
-5.57975 -5.57975 -5.53511 -5.53511 -5.48714 -5.48714
-5.437 -5.437 -5.38826 -5.38826 -5.37453 -5.37453
-5.45575 -5.45575 -5.38835 -5.38835 -3.70742 -3.70742
-2.19585 -2.19585
        </DataArray>
        <DataArray type='Float32' Name='U' NumberOfComponents='3' format='ascii'>
10 0 0 10 0 0
10 0 0 10 0 0
10 0 0 10 0 0
10 0 0 10 0 0
10 0 0 10 0 0
10 0 0 10 0 0
10 0 0 10 0 0
10 0 0 10 0 0
10 0 0 10 0 0
10 0 0 10 0 0
10 0 0 10 0 0
10 0 0 10 0 0
10 0 0 10 0 0
10 0 0 10 0 0
10 0 0 10 0 0
10 0 0 10 0 0
10 0 0 10 0 0
10 0 0 10 0 0
10 0 0 10 0 0
10 0 0 10 0 0
10 0 0 10 0 0
10 0 0 10 0 0
10 0 0 10 0 0
10 0 0 10 0 0
10 0 0 10 0 0
10 0 0 10 0 0
10 0 0 10 0 0
10 0 0 10 0 0
10 0 0 10 0 0
10 0 0 10 0 0
10 0 0 10 0 0
        </DataArray>
      </PointData>
    </Piece>
  </PolyData>
</VTKFile>
