<?xml version='1.0'?>
<!-- patch='lowerWall' time='283' index='283' -->
<VTKFile type='PolyData' version='0.1' byte_order='LittleEndian' header_type='UInt64'>
  <PolyData>
    <FieldData>
      <DataArray type='Float32' Name='TimeValue' NumberOfTuples='1' format='ascii'>
283
      </DataArray>
    </FieldData>
    <Piece NumberOfPoints='502' NumberOfPolys='250'>
      <Points>
        <DataArray type='Float32' Name='Points' NumberOfComponents='3' format='ascii'>
-0.0206 0 -0.0005 -0.0190172 0 -0.0005
-0.0190172 0 0.0005 -0.0206 0 0.0005
-0.0174976 0 -0.0005 -0.0174976 0 0.0005
-0.0160387 0 -0.0005 -0.0160387 0 0.0005
-0.0146381 0 -0.0005 -0.0146381 0 0.0005
-0.0132934 0 -0.0005 -0.0132934 0 0.0005
-0.0120025 0 -0.0005 -0.0120025 0 0.0005
-0.0107632 0 -0.0005 -0.0107632 0 0.0005
-0.00957337 0 -0.0005 -0.00957337 0 0.0005
-0.00843108 0 -0.0005 -0.00843108 0 0.0005
-0.00733443 0 -0.0005 -0.00733443 0 0.0005
-0.0062816 0 -0.0005 -0.0062816 0 0.0005
-0.00527083 0 -0.0005 -0.00527083 0 0.0005
-0.00430044 0 -0.0005 -0.00430044 0 0.0005
-0.00336883 0 -0.0005 -0.00336883 0 0.0005
-0.00247443 0 -0.0005 -0.00247443 0 0.0005
-0.00161577 0 -0.0005 -0.00161577 0 0.0005
-0.000791418 0 -0.0005 -0.000791418 0 0.0005
0 0 -0.0005 0 0 0.0005
0 -0.0254 -0.0005 0 -0.0254 0.0005
0 -0.0242711 0.0005 0 -0.0242711 -0.0005
0 -0.0231422 0.0005 0 -0.0231422 -0.0005
0 -0.0220133 0.0005 0 -0.0220133 -0.0005
0 -0.0208844 0.0005 0 -0.0208844 -0.0005
0 -0.0197556 0.0005 0 -0.0197556 -0.0005
0 -0.0186267 0.0005 0 -0.0186267 -0.0005
0 -0.0174978 0.0005 0 -0.0174978 -0.0005
0 -0.0163689 0.0005 0 -0.0163689 -0.0005
0 -0.01524 0.0005 0 -0.01524 -0.0005
0 -0.0141111 0.0005 0 -0.0141111 -0.0005
0 -0.0129822 0.0005 0 -0.0129822 -0.0005
0 -0.0118533 0.0005 0 -0.0118533 -0.0005
0 -0.0107244 0.0005 0 -0.0107244 -0.0005
0 -0.00959556 0.0005 0 -0.00959556 -0.0005
0 -0.00846667 0.0005 0 -0.00846667 -0.0005
0 -0.00726604 0.0005 0 -0.00726604 -0.0005
0 -0.00618989 0.0005 0 -0.00618989 -0.0005
0 -0.00522531 0.0005 0 -0.00522531 -0.0005
0 -0.00436073 0.0005 0 -0.00436073 -0.0005
0 -0.00358579 0.0005 0 -0.00358579 -0.0005
0 -0.00289118 0.0005 0 -0.00289118 -0.0005
0 -0.0022686 0.0005 0 -0.0022686 -0.0005
0 -0.00171055 0.0005 0 -0.00171055 -0.0005
0 -0.00121037 0.0005 0 -0.00121037 -0.0005
0 -0.000762037 0.0005 0 -0.000762037 -0.0005
0 -0.000360188 0.0005 0 -0.000360188 -0.0005
0.000528387 -0.0254 -0.0005 0.000528387 -0.0254 0.0005
0.00106088 -0.0254 -0.0005 0.00106088 -0.0254 0.0005
0.00159752 -0.0254 -0.0005 0.00159752 -0.0254 0.0005
0.00213833 -0.0254 -0.0005 0.00213833 -0.0254 0.0005
0.00268334 -0.0254 -0.0005 0.00268334 -0.0254 0.0005
0.00323259 -0.0254 -0.0005 0.00323259 -0.0254 0.0005
0.00378611 -0.0254 -0.0005 0.00378611 -0.0254 0.0005
0.00434393 -0.0254 -0.0005 0.00434393 -0.0254 0.0005
0.00490609 -0.0254 -0.0005 0.00490609 -0.0254 0.0005
0.00547262 -0.0254 -0.0005 0.00547262 -0.0254 0.0005
0.00604356 -0.0254 -0.0005 0.00604356 -0.0254 0.0005
0.00661893 -0.0254 -0.0005 0.00661893 -0.0254 0.0005
0.00719878 -0.0254 -0.0005 0.00719878 -0.0254 0.0005
0.00778313 -0.0254 -0.0005 0.00778313 -0.0254 0.0005
0.00837203 -0.0254 -0.0005 0.00837203 -0.0254 0.0005
0.00896551 -0.0254 -0.0005 0.00896551 -0.0254 0.0005
0.0095636 -0.0254 -0.0005 0.0095636 -0.0254 0.0005
0.0101663 -0.0254 -0.0005 0.0101663 -0.0254 0.0005
0.0107738 -0.0254 -0.0005 0.0107738 -0.0254 0.0005
0.0113859 -0.0254 -0.0005 0.0113859 -0.0254 0.0005
0.0120028 -0.0254 -0.0005 0.0120028 -0.0254 0.0005
0.0126245 -0.0254 -0.0005 0.0126245 -0.0254 0.0005
0.0132511 -0.0254 -0.0005 0.0132511 -0.0254 0.0005
0.0138825 -0.0254 -0.0005 0.0138825 -0.0254 0.0005
0.0145188 -0.0254 -0.0005 0.0145188 -0.0254 0.0005
0.0151601 -0.0254 -0.0005 0.0151601 -0.0254 0.0005
0.0158063 -0.0254 -0.0005 0.0158063 -0.0254 0.0005
0.0164576 -0.0254 -0.0005 0.0164576 -0.0254 0.0005
0.0171139 -0.0254 -0.0005 0.0171139 -0.0254 0.0005
0.0177754 -0.0254 -0.0005 0.0177754 -0.0254 0.0005
0.018442 -0.0254 -0.0005 0.018442 -0.0254 0.0005
0.0191137 -0.0254 -0.0005 0.0191137 -0.0254 0.0005
0.0197907 -0.0254 -0.0005 0.0197907 -0.0254 0.0005
0.020473 -0.0254 -0.0005 0.020473 -0.0254 0.0005
0.0211606 -0.0254 -0.0005 0.0211606 -0.0254 0.0005
0.0218535 -0.0254 -0.0005 0.0218535 -0.0254 0.0005
0.0225517 -0.0254 -0.0005 0.0225517 -0.0254 0.0005
0.0232555 -0.0254 -0.0005 0.0232555 -0.0254 0.0005
0.0239647 -0.0254 -0.0005 0.0239647 -0.0254 0.0005
0.0246794 -0.0254 -0.0005 0.0246794 -0.0254 0.0005
0.0253996 -0.0254 -0.0005 0.0253996 -0.0254 0.0005
0.0261255 -0.0254 -0.0005 0.0261255 -0.0254 0.0005
0.026857 -0.0254 -0.0005 0.026857 -0.0254 0.0005
0.0275942 -0.0254 -0.0005 0.0275942 -0.0254 0.0005
0.0283371 -0.0254 -0.0005 0.0283371 -0.0254 0.0005
0.0290858 -0.0254 -0.0005 0.0290858 -0.0254 0.0005
0.0298403 -0.0254 -0.0005 0.0298403 -0.0254 0.0005
0.0306007 -0.0254 -0.0005 0.0306007 -0.0254 0.0005
0.031367 -0.0254 -0.0005 0.031367 -0.0254 0.0005
0.0321393 -0.0254 -0.0005 0.0321393 -0.0254 0.0005
0.0329175 -0.0254 -0.0005 0.0329175 -0.0254 0.0005
0.0337019 -0.0254 -0.0005 0.0337019 -0.0254 0.0005
0.0344923 -0.0254 -0.0005 0.0344923 -0.0254 0.0005
0.0352888 -0.0254 -0.0005 0.0352888 -0.0254 0.0005
0.0360916 -0.0254 -0.0005 0.0360916 -0.0254 0.0005
0.0369006 -0.0254 -0.0005 0.0369006 -0.0254 0.0005
0.0377158 -0.0254 -0.0005 0.0377158 -0.0254 0.0005
0.0385375 -0.0254 -0.0005 0.0385375 -0.0254 0.0005
0.0393655 -0.0254 -0.0005 0.0393655 -0.0254 0.0005
0.0401999 -0.0254 -0.0005 0.0401999 -0.0254 0.0005
0.0410408 -0.0254 -0.0005 0.0410408 -0.0254 0.0005
0.0418883 -0.0254 -0.0005 0.0418883 -0.0254 0.0005
0.0427424 -0.0254 -0.0005 0.0427424 -0.0254 0.0005
0.0436031 -0.0254 -0.0005 0.0436031 -0.0254 0.0005
0.0444704 -0.0254 -0.0005 0.0444704 -0.0254 0.0005
0.0453446 -0.0254 -0.0005 0.0453446 -0.0254 0.0005
0.0462255 -0.0254 -0.0005 0.0462255 -0.0254 0.0005
0.0471133 -0.0254 -0.0005 0.0471133 -0.0254 0.0005
0.048008 -0.0254 -0.0005 0.048008 -0.0254 0.0005
0.0489096 -0.0254 -0.0005 0.0489096 -0.0254 0.0005
0.0498183 -0.0254 -0.0005 0.0498183 -0.0254 0.0005
0.050734 -0.0254 -0.0005 0.050734 -0.0254 0.0005
0.0516568 -0.0254 -0.0005 0.0516568 -0.0254 0.0005
0.0525868 -0.0254 -0.0005 0.0525868 -0.0254 0.0005
0.053524 -0.0254 -0.0005 0.053524 -0.0254 0.0005
0.0544686 -0.0254 -0.0005 0.0544686 -0.0254 0.0005
0.0554204 -0.0254 -0.0005 0.0554204 -0.0254 0.0005
0.0563797 -0.0254 -0.0005 0.0563797 -0.0254 0.0005
0.0573464 -0.0254 -0.0005 0.0573464 -0.0254 0.0005
0.0583206 -0.0254 -0.0005 0.0583206 -0.0254 0.0005
0.0593025 -0.0254 -0.0005 0.0593025 -0.0254 0.0005
0.0602919 -0.0254 -0.0005 0.0602919 -0.0254 0.0005
0.0612891 -0.0254 -0.0005 0.0612891 -0.0254 0.0005
0.0622939 -0.0254 -0.0005 0.0622939 -0.0254 0.0005
0.0633067 -0.0254 -0.0005 0.0633067 -0.0254 0.0005
0.0643272 -0.0254 -0.0005 0.0643272 -0.0254 0.0005
0.0653557 -0.0254 -0.0005 0.0653557 -0.0254 0.0005
0.0663923 -0.0254 -0.0005 0.0663923 -0.0254 0.0005
0.0674368 -0.0254 -0.0005 0.0674368 -0.0254 0.0005
0.0684895 -0.0254 -0.0005 0.0684895 -0.0254 0.0005
0.0695504 -0.0254 -0.0005 0.0695504 -0.0254 0.0005
0.0706195 -0.0254 -0.0005 0.0706195 -0.0254 0.0005
0.0716969 -0.0254 -0.0005 0.0716969 -0.0254 0.0005
0.0727828 -0.0254 -0.0005 0.0727828 -0.0254 0.0005
0.073877 -0.0254 -0.0005 0.073877 -0.0254 0.0005
0.0749798 -0.0254 -0.0005 0.0749798 -0.0254 0.0005
0.0760911 -0.0254 -0.0005 0.0760911 -0.0254 0.0005
0.0772111 -0.0254 -0.0005 0.0772111 -0.0254 0.0005
0.0783398 -0.0254 -0.0005 0.0783398 -0.0254 0.0005
0.0794772 -0.0254 -0.0005 0.0794772 -0.0254 0.0005
0.0806235 -0.0254 -0.0005 0.0806235 -0.0254 0.0005
0.0817787 -0.0254 -0.0005 0.0817787 -0.0254 0.0005
0.0829429 -0.0254 -0.0005 0.0829429 -0.0254 0.0005
0.0841162 -0.0254 -0.0005 0.0841162 -0.0254 0.0005
0.0852985 -0.0254 -0.0005 0.0852985 -0.0254 0.0005
0.0864901 -0.0254 -0.0005 0.0864901 -0.0254 0.0005
0.0876909 -0.0254 -0.0005 0.0876909 -0.0254 0.0005
0.0889011 -0.0254 -0.0005 0.0889011 -0.0254 0.0005
0.0901207 -0.0254 -0.0005 0.0901207 -0.0254 0.0005
0.0913497 -0.0254 -0.0005 0.0913497 -0.0254 0.0005
0.0925883 -0.0254 -0.0005 0.0925883 -0.0254 0.0005
0.0938366 -0.0254 -0.0005 0.0938366 -0.0254 0.0005
0.0950945 -0.0254 -0.0005 0.0950945 -0.0254 0.0005
0.0963622 -0.0254 -0.0005 0.0963622 -0.0254 0.0005
0.0976398 -0.0254 -0.0005 0.0976398 -0.0254 0.0005
0.0989273 -0.0254 -0.0005 0.0989273 -0.0254 0.0005
0.100225 -0.0254 -0.0005 0.100225 -0.0254 0.0005
0.101532 -0.0254 -0.0005 0.101532 -0.0254 0.0005
0.10285 -0.0254 -0.0005 0.10285 -0.0254 0.0005
0.104178 -0.0254 -0.0005 0.104178 -0.0254 0.0005
0.105517 -0.0254 -0.0005 0.105517 -0.0254 0.0005
0.106865 -0.0254 -0.0005 0.106865 -0.0254 0.0005
0.108225 -0.0254 -0.0005 0.108225 -0.0254 0.0005
0.109594 -0.0254 -0.0005 0.109594 -0.0254 0.0005
0.110975 -0.0254 -0.0005 0.110975 -0.0254 0.0005
0.112366 -0.0254 -0.0005 0.112366 -0.0254 0.0005
0.113768 -0.0254 -0.0005 0.113768 -0.0254 0.0005
0.115181 -0.0254 -0.0005 0.115181 -0.0254 0.0005
0.116605 -0.0254 -0.0005 0.116605 -0.0254 0.0005
0.11804 -0.0254 -0.0005 0.11804 -0.0254 0.0005
0.119486 -0.0254 -0.0005 0.119486 -0.0254 0.0005
0.120943 -0.0254 -0.0005 0.120943 -0.0254 0.0005
0.122412 -0.0254 -0.0005 0.122412 -0.0254 0.0005
0.123892 -0.0254 -0.0005 0.123892 -0.0254 0.0005
0.125384 -0.0254 -0.0005 0.125384 -0.0254 0.0005
0.126887 -0.0254 -0.0005 0.126887 -0.0254 0.0005
0.128402 -0.0254 -0.0005 0.128402 -0.0254 0.0005
0.129928 -0.0254 -0.0005 0.129928 -0.0254 0.0005
0.131467 -0.0254 -0.0005 0.131467 -0.0254 0.0005
0.133017 -0.0254 -0.0005 0.133017 -0.0254 0.0005
0.13458 -0.0254 -0.0005 0.13458 -0.0254 0.0005
0.136155 -0.0254 -0.0005 0.136155 -0.0254 0.0005
0.137742 -0.0254 -0.0005 0.137742 -0.0254 0.0005
0.139341 -0.0254 -0.0005 0.139341 -0.0254 0.0005
0.140953 -0.0254 -0.0005 0.140953 -0.0254 0.0005
0.142577 -0.0254 -0.0005 0.142577 -0.0254 0.0005
0.144214 -0.0254 -0.0005 0.144214 -0.0254 0.0005
0.145863 -0.0254 -0.0005 0.145863 -0.0254 0.0005
0.147526 -0.0254 -0.0005 0.147526 -0.0254 0.0005
0.149201 -0.0254 -0.0005 0.149201 -0.0254 0.0005
0.15089 -0.0254 -0.0005 0.15089 -0.0254 0.0005
0.152591 -0.0254 -0.0005 0.152591 -0.0254 0.0005
0.154306 -0.0254 -0.0005 0.154306 -0.0254 0.0005
0.156034 -0.0254 -0.0005 0.156034 -0.0254 0.0005
0.157775 -0.0254 -0.0005 0.157775 -0.0254 0.0005
0.159531 -0.0254 -0.0005 0.159531 -0.0254 0.0005
0.161299 -0.0254 -0.0005 0.161299 -0.0254 0.0005
0.163082 -0.0254 -0.0005 0.163082 -0.0254 0.0005
0.164878 -0.0254 -0.0005 0.164878 -0.0254 0.0005
0.166688 -0.0254 -0.0005 0.166688 -0.0254 0.0005
0.168513 -0.0254 -0.0005 0.168513 -0.0254 0.0005
0.170351 -0.0254 -0.0005 0.170351 -0.0254 0.0005
0.172204 -0.0254 -0.0005 0.172204 -0.0254 0.0005
0.174071 -0.0254 -0.0005 0.174071 -0.0254 0.0005
0.175953 -0.0254 -0.0005 0.175953 -0.0254 0.0005
0.177849 -0.0254 -0.0005 0.177849 -0.0254 0.0005
0.17976 -0.0254 -0.0005 0.17976 -0.0254 0.0005
0.181686 -0.0254 -0.0005 0.181686 -0.0254 0.0005
0.183627 -0.0254 -0.0005 0.183627 -0.0254 0.0005
0.185583 -0.0254 -0.0005 0.185583 -0.0254 0.0005
0.187555 -0.0254 -0.0005 0.187555 -0.0254 0.0005
0.189541 -0.0254 -0.0005 0.189541 -0.0254 0.0005
0.191543 -0.0254 -0.0005 0.191543 -0.0254 0.0005
0.193561 -0.0254 -0.0005 0.193561 -0.0254 0.0005
0.195594 -0.0254 -0.0005 0.195594 -0.0254 0.0005
0.197643 -0.0254 -0.0005 0.197643 -0.0254 0.0005
0.199708 -0.0254 -0.0005 0.199708 -0.0254 0.0005
0.201789 -0.0254 -0.0005 0.201789 -0.0254 0.0005
0.203886 -0.0254 -0.0005 0.203886 -0.0254 0.0005
0.206 -0.0254 -0.0005 0.206 -0.0254 0.0005
0.208047 -0.0251856 -0.0005 0.208047 -0.0251856 0.0005
0.210173 -0.0249628 -0.0005 0.210173 -0.0249628 0.0005
0.212382 -0.0247314 -0.0005 0.212382 -0.0247314 0.0005
0.214677 -0.024491 -0.0005 0.214677 -0.024491 0.0005
0.217061 -0.0242412 -0.0005 0.217061 -0.0242412 0.0005
0.219538 -0.0239817 -0.0005 0.219538 -0.0239817 0.0005
0.222112 -0.0237121 -0.0005 0.222112 -0.0237121 0.0005
0.224785 -0.023432 -0.0005 0.224785 -0.023432 0.0005
0.227563 -0.023141 -0.0005 0.227563 -0.023141 0.0005
0.230449 -0.0228387 -0.0005 0.230449 -0.0228387 0.0005
0.233447 -0.0225246 -0.0005 0.233447 -0.0225246 0.0005
0.236562 -0.0221983 -0.0005 0.236562 -0.0221983 0.0005
0.239797 -0.0218593 -0.0005 0.239797 -0.0218593 0.0005
0.243159 -0.0215071 -0.0005 0.243159 -0.0215071 0.0005
0.246652 -0.0211412 -0.0005 0.246652 -0.0211412 0.0005
0.250281 -0.0207611 -0.0005 0.250281 -0.0207611 0.0005
0.254051 -0.0203661 -0.0005 0.254051 -0.0203661 0.0005
0.257967 -0.0199558 -0.0005 0.257967 -0.0199558 0.0005
0.262036 -0.0195295 -0.0005 0.262036 -0.0195295 0.0005
0.266264 -0.0190867 -0.0005 0.266264 -0.0190867 0.0005
0.270655 -0.0186266 -0.0005 0.270655 -0.0186266 0.0005
0.275218 -0.0181486 -0.0005 0.275218 -0.0181486 0.0005
0.279959 -0.017652 -0.0005 0.279959 -0.017652 0.0005
0.284883 -0.017136 -0.0005 0.284883 -0.017136 0.0005
0.29 -0.0166 -0.0005 0.29 -0.0166 0.0005
        </DataArray>
      </Points>
      <Polys>
        <DataArray type='Int32' Name='connectivity' format='ascii'>
0 1 2 3 1 4
5 2 4 6 7 5
6 8 9 7 8 10
11 9 10 12 13 11
12 14 15 13 14 16
17 15 16 18 19 17
18 20 21 19 20 22
23 21 22 24 25 23
24 26 27 25 26 28
29 27 28 30 31 29
30 32 33 31 32 34
35 33 34 36 37 35
38 39 40 41 41 40
42 43 43 42 44 45
45 44 46 47 47 46
48 49 49 48 50 51
51 50 52 53 53 52
54 55 55 54 56 57
57 56 58 59 59 58
60 61 61 60 62 63
63 62 64 65 65 64
66 67 67 66 68 69
69 68 70 71 71 70
72 73 73 72 74 75
75 74 76 77 77 76
78 79 79 78 80 81
81 80 82 83 83 82
84 85 85 84 86 87
87 86 88 89 89 88
90 91 91 90 37 36
38 92 93 39 92 94
95 93 94 96 97 95
96 98 99 97 98 100
101 99 100 102 103 101
102 104 105 103 104 106
107 105 106 108 109 107
108 110 111 109 110 112
113 111 112 114 115 113
114 116 117 115 116 118
119 117 118 120 121 119
120 122 123 121 122 124
125 123 124 126 127 125
126 128 129 127 128 130
131 129 130 132 133 131
132 134 135 133 134 136
137 135 136 138 139 137
138 140 141 139 140 142
143 141 142 144 145 143
144 146 147 145 146 148
149 147 148 150 151 149
150 152 153 151 152 154
155 153 154 156 157 155
156 158 159 157 158 160
161 159 160 162 163 161
162 164 165 163 164 166
167 165 166 168 169 167
168 170 171 169 170 172
173 171 172 174 175 173
174 176 177 175 176 178
179 177 178 180 181 179
180 182 183 181 182 184
185 183 184 186 187 185
186 188 189 187 188 190
191 189 190 192 193 191
192 194 195 193 194 196
197 195 196 198 199 197
198 200 201 199 200 202
203 201 202 204 205 203
204 206 207 205 206 208
209 207 208 210 211 209
210 212 213 211 212 214
215 213 214 216 217 215
216 218 219 217 218 220
221 219 220 222 223 221
222 224 225 223 224 226
227 225 226 228 229 227
228 230 231 229 230 232
233 231 232 234 235 233
234 236 237 235 236 238
239 237 238 240 241 239
240 242 243 241 242 244
245 243 244 246 247 245
246 248 249 247 248 250
251 249 250 252 253 251
252 254 255 253 254 256
257 255 256 258 259 257
258 260 261 259 260 262
263 261 262 264 265 263
264 266 267 265 266 268
269 267 268 270 271 269
270 272 273 271 272 274
275 273 274 276 277 275
276 278 279 277 278 280
281 279 280 282 283 281
282 284 285 283 284 286
287 285 286 288 289 287
288 290 291 289 290 292
293 291 292 294 295 293
294 296 297 295 296 298
299 297 298 300 301 299
300 302 303 301 302 304
305 303 304 306 307 305
306 308 309 307 308 310
311 309 310 312 313 311
312 314 315 313 314 316
317 315 316 318 319 317
318 320 321 319 320 322
323 321 322 324 325 323
324 326 327 325 326 328
329 327 328 330 331 329
330 332 333 331 332 334
335 333 334 336 337 335
336 338 339 337 338 340
341 339 340 342 343 341
342 344 345 343 344 346
347 345 346 348 349 347
348 350 351 349 350 352
353 351 352 354 355 353
354 356 357 355 356 358
359 357 358 360 361 359
360 362 363 361 362 364
365 363 364 366 367 365
366 368 369 367 368 370
371 369 370 372 373 371
372 374 375 373 374 376
377 375 376 378 379 377
378 380 381 379 380 382
383 381 382 384 385 383
384 386 387 385 386 388
389 387 388 390 391 389
390 392 393 391 392 394
395 393 394 396 397 395
396 398 399 397 398 400
401 399 400 402 403 401
402 404 405 403 404 406
407 405 406 408 409 407
408 410 411 409 410 412
413 411 412 414 415 413
414 416 417 415 416 418
419 417 418 420 421 419
420 422 423 421 422 424
425 423 424 426 427 425
426 428 429 427 428 430
431 429 430 432 433 431
432 434 435 433 434 436
437 435 436 438 439 437
438 440 441 439 440 442
443 441 442 444 445 443
444 446 447 445 446 448
449 447 448 450 451 449
450 452 453 451 452 454
455 453 454 456 457 455
456 458 459 457 458 460
461 459 460 462 463 461
462 464 465 463 464 466
467 465 466 468 469 467
468 470 471 469 470 472
473 471 472 474 475 473
474 476 477 475 476 478
479 477 478 480 481 479
480 482 483 481 482 484
485 483 484 486 487 485
486 488 489 487 488 490
491 489 490 492 493 491
492 494 495 493 494 496
497 495 496 498 499 497
498 500 501 499
        </DataArray>
        <DataArray type='Int32' Name='offsets' format='ascii'>
4 8 12 16 20 24
28 32 36 40 44 48
52 56 60 64 68 72
76 80 84 88 92 96
100 104 108 112 116 120
124 128 132 136 140 144
148 152 156 160 164 168
172 176 180 184 188 192
196 200 204 208 212 216
220 224 228 232 236 240
244 248 252 256 260 264
268 272 276 280 284 288
292 296 300 304 308 312
316 320 324 328 332 336
340 344 348 352 356 360
364 368 372 376 380 384
388 392 396 400 404 408
412 416 420 424 428 432
436 440 444 448 452 456
460 464 468 472 476 480
484 488 492 496 500 504
508 512 516 520 524 528
532 536 540 544 548 552
556 560 564 568 572 576
580 584 588 592 596 600
604 608 612 616 620 624
628 632 636 640 644 648
652 656 660 664 668 672
676 680 684 688 692 696
700 704 708 712 716 720
724 728 732 736 740 744
748 752 756 760 764 768
772 776 780 784 788 792
796 800 804 808 812 816
820 824 828 832 836 840
844 848 852 856 860 864
868 872 876 880 884 888
892 896 900 904 908 912
916 920 924 928 932 936
940 944 948 952 956 960
964 968 972 976 980 984
988 992 996 1000
        </DataArray>
      </Polys>
      <CellData>
        <DataArray type='Float32' Name='epsilon' format='ascii'>
1086.11 2467.51 3645.54 4414.76 4812.17 4980.55
4972.22 4932.36 4837.76 4728.39 4620.49 4517.16
4425.49 4339.51 4269.04 4198.4 4151 4085.24
0.168483 0.655 1.4187 2.22146 2.93606 3.53059
4.00322 4.40977 5.26157 6.29957 7.31487 8.26245
9.11862 9.87264 10.5159 11.0954 11.6287 12.094
12.5567 13.0755 13.683 14.4939 15.2239 17.0378
17.8239 36.6642 334.839 0.168483 0.169423 0.293557
0.429625 0.562026 0.684277 0.794781 0.893825 0.982686
1.06811 1.15521 1.24486 1.33973 1.44223 1.55386
1.67501 1.8057 1.94676 2.10301 2.28918 2.52917
2.82659 3.17498 3.57534 4.03423 4.56078 5.16549
5.85883 6.65026 7.54565 8.54689 9.65787 10.88
12.2118 13.6529 15.2014 16.8567 18.6175 20.4833
22.454 24.5306 26.7155 29.0133 31.4313 33.9809
36.6793 39.5521 42.6368 45.8645 49.2408 52.7677
56.4516 60.2955 64.3047 68.4832 72.8359 77.3669
82.0807 86.9814 92.0733 97.3598 102.845 108.532
114.423 120.522 126.831 133.352 140.085 147.033
154.195 161.572 169.163 176.967 184.981 193.204
201.633 210.264 219.092 228.113 237.321 246.708
256.27 265.996 275.879 285.91 296.078 306.372
316.782 327.294 337.896 348.572 359.307 370.084
380.883 391.685 402.465 413.198 423.857 434.414
444.845 455.146 465.351 475.487 485.452 495.279
504.938 514.421 523.708 532.783 541.63 550.232
558.574 566.639 574.413 581.88 589.028 595.842
602.309 608.418 614.157 619.514 624.481 629.046
633.203 636.944 640.264 643.157 645.62 647.649
649.24 650.383 651.114 651.48 651.313 650.664
649.549 648.107 646.317 644.029 641.354 638.276
634.812 630.972 626.769 622.216 617.323 612.102
606.568 600.734 594.617 588.232 581.595 574.721
567.629 560.334 552.854 545.205 537.405 529.472
521.422 513.275 505.052 496.779 488.508 480.437
474.287 470.87 467.781 464.691 461.573 458.425
455.25 452.044 448.794 445.467 441.983 438.185
433.598 427.329 402.993 435.945 458.987 476.393
490.602 503.32 515.887 528.689 541.637 554.985
568.918 583.588 599.123 615.725 633.568 652.905
674.039 697.253 723.06 752.385 783.616 825.879
858.813 932.218 964.601 1101.33
        </DataArray>
        <DataArray type='Float32' Name='k' format='ascii'>
0.571355 0.987723 1.28114 1.45557 1.54166 1.57741
1.57632 1.56599 1.54775 1.52388 1.50049 1.47801
1.45794 1.43899 1.42336 1.40763 1.39698 1.38227
0.00230085 0.00568836 0.0095287 0.0128554 0.0154874 0.0175165
0.0190488 0.0203111 0.022826 0.0257419 0.0284451 0.0308583
0.0329616 0.0347611 0.0362624 0.0375882 0.0387915 0.0398283
0.0408477 0.041968 0.0433015 0.0448482 0.0470362 0.0485433
0.0549775 0.0786799 0.365901 0.00230085 0.00383033 0.00552504
0.00712139 0.0085172 0.00971018 0.0107278 0.0115999 0.0123546
0.0130565 0.0137534 0.0144521 0.015173 0.0159328 0.0167399
0.0175943 0.0184929 0.0194381 0.0204565 0.0216328 0.0231019
0.0248668 0.0268606 0.0290645 0.0314912 0.0341642 0.0371094
0.0403478 0.0438919 0.0477369 0.0518595 0.0562485 0.0608854
0.0657427 0.0708012 0.07604 0.0814438 0.0869979 0.0926915
0.0985166 0.104469 0.110549 0.116762 0.12312 0.129645
0.13637 0.143345 0.150643 0.158096 0.165698 0.173451
0.181361 0.189426 0.197651 0.206038 0.214587 0.223301
0.232181 0.241227 0.25044 0.25982 0.269367 0.279079
0.288956 0.298994 0.309193 0.319548 0.330058 0.340716
0.35152 0.362463 0.373541 0.384747 0.396075 0.407517
0.419067 0.430715 0.442453 0.454273 0.466164 0.478117
0.490122 0.502166 0.514241 0.526333 0.538432 0.550524
0.562598 0.574638 0.586634 0.598569 0.610428 0.622195
0.633852 0.64538 0.656758 0.667961 0.678967 0.689752
0.700297 0.710601 0.720708 0.730649 0.740324 0.749773
0.75897 0.767913 0.776586 0.784979 0.793082 0.800883
0.808373 0.815541 0.822378 0.828875 0.835023 0.840814
0.846242 0.851298 0.855978 0.860275 0.864183 0.867698
0.870816 0.873533 0.875848 0.87776 0.879267 0.880369
0.881065 0.881346 0.881245 0.880814 0.879895 0.87854
0.876757 0.874675 0.872274 0.869419 0.866218 0.862648
0.858725 0.854458 0.849857 0.844933 0.839693 0.834147
0.828306 0.822181 0.815785 0.809129 0.802226 0.795088
0.78773 0.780164 0.772404 0.764464 0.756357 0.748098
0.739701 0.731183 0.72256 0.713856 0.705118 0.696518
0.68961 0.685453 0.681655 0.677852 0.674014 0.670139
0.666228 0.662279 0.658277 0.654189 0.649937 0.645367
0.640009 0.632977 0.607881 0.636036 0.654442 0.66681
0.675673 0.682694 0.68914 0.695321 0.701146 0.706807
0.712422 0.718071 0.7238 0.729713 0.735869 0.74237
0.749351 0.756894 0.765212 0.774798 0.78429 0.799532
0.806968 0.837189 0.840317 0.899428
        </DataArray>
        <DataArray type='Float32' Name='nut' format='ascii'>
0 0 0 0 0 0
0 0 0 0 0 0
0 0 0 0 0 0
0 0 0 0 0 0
0 0 0 0 0 0
0 0 0 0 0 0
0 0 0 0 0 0
0 0 0 0 0 0
0 0 0 0 0 0
0 0 0 0 0 0
0 0 0 0 0 0
0 0 0 0 0 0
0 0 0 0 0 0
0 0 0 0 0 0
0 0 0 0 0 0
0 0 1.20085e-07 3.09741e-07 4.97638e-07 6.83947e-07
8.68826e-07 1.05235e-06 1.23464e-06 1.41577e-06 1.59582e-06 1.77484e-06
1.95289e-06 2.13001e-06 2.30622e-06 2.48154e-06 2.65598e-06 2.82953e-06
3.0022e-06 3.17395e-06 3.34478e-06 3.51463e-06 3.68349e-06 3.85129e-06
4.01802e-06 4.18359e-06 4.34796e-06 4.51106e-06 4.67285e-06 4.83323e-06
4.99215e-06 5.14953e-06 5.3053e-06 5.45938e-06 5.61171e-06 5.76218e-06
5.91074e-06 6.05728e-06 6.20176e-06 6.34405e-06 6.48412e-06 6.62184e-06
6.75716e-06 6.88997e-06 7.02021e-06 7.14776e-06 7.27254e-06 7.39443e-06
7.51331e-06 7.62906e-06 7.74153e-06 7.85055e-06 7.95595e-06 8.05757e-06
8.15532e-06 8.24928e-06 8.33999e-06 8.42785e-06 8.51189e-06 8.59262e-06
8.66982e-06 8.74356e-06 8.81373e-06 8.88033e-06 8.9433e-06 9.0026e-06
9.0582e-06 9.11005e-06 9.15813e-06 9.20242e-06 9.24288e-06 9.27948e-06
9.31223e-06 9.34108e-06 9.36605e-06 9.38711e-06 9.40425e-06 9.41746e-06
9.42675e-06 9.43212e-06 9.43358e-06 9.43114e-06 9.42484e-06 9.41466e-06
9.40062e-06 9.38267e-06 9.36112e-06 9.33642e-06 9.30719e-06 9.27388e-06
9.23658e-06 9.19643e-06 9.15326e-06 9.10586e-06 9.05517e-06 9.00099e-06
8.94346e-06 8.88263e-06 8.81858e-06 8.75139e-06 8.68112e-06 8.60782e-06
8.53158e-06 8.45247e-06 8.37059e-06 8.28602e-06 8.19885e-06 8.10918e-06
8.01709e-06 7.92269e-06 7.82608e-06 7.72736e-06 7.62663e-06 7.524e-06
7.41959e-06 7.31352e-06 7.20593e-06 7.09705e-06 6.98729e-06 6.87836e-06
6.78566e-06 6.71991e-06 6.65752e-06 6.59489e-06 6.53169e-06 6.46793e-06
6.40361e-06 6.33869e-06 6.27304e-06 6.2063e-06 6.1377e-06 6.06566e-06
5.9854e-06 5.88781e-06 5.60343e-06 5.75513e-06 5.82668e-06 5.83007e-06
5.79239e-06 5.73051e-06 5.65662e-06 5.57348e-06 5.4801e-06 5.37803e-06
5.26803e-06 5.15048e-06 5.02543e-06 4.89332e-06 4.75418e-06 4.60831e-06
4.45617e-06 4.29767e-06 4.13367e-06 3.9668e-06 3.78614e-06 3.63134e-06
3.40789e-06 3.31695e-06 3.03328e-06 3.06779e-06
        </DataArray>
        <DataArray type='Float32' Name='p' format='ascii'>
-1.71725 -3.8819 -4.97437 -5.28802 -5.46478 -5.64352
-5.79161 -5.90324 -5.99487 -6.07784 -6.15521 -6.22804
-6.29802 -6.36715 -6.43791 -6.50976 -6.59731 -6.65057
-7.06465 -7.06512 -7.06408 -7.06096 -7.05575 -7.04906
-7.04183 -7.03507 -7.02959 -7.02596 -7.0244 -7.02489
-7.02725 -7.03124 -7.03661 -7.0434 -7.05122 -7.05948
-7.06845 -7.07856 -7.09047 -7.10523 -7.12444 -7.15116
-7.1925 -7.2545 -7.43827 -7.06465 -7.0644 -7.06436
-7.06476 -7.06559 -7.06675 -7.06815 -7.06969 -7.07132
-7.07299 -7.07474 -7.07658 -7.07851 -7.08057 -7.08279
-7.08519 -7.0878 -7.09067 -7.09381 -7.09727 -7.1011
-7.10533 -7.11 -7.11516 -7.12086 -7.12716 -7.13412
-7.14183 -7.15036 -7.15981 -7.17025 -7.18175 -7.19438
-7.20818 -7.2232 -7.23946 -7.25696 -7.27569 -7.29562
-7.31671 -7.33891 -7.36216 -7.38638 -7.41151 -7.43748
-7.46427 -7.49179 -7.51989 -7.54841 -7.5773 -7.60648
-7.6359 -7.66549 -7.69519 -7.72492 -7.75462 -7.7842
-7.81359 -7.8427 -7.87145 -7.89974 -7.92747 -7.95453
-7.98081 -8.00619 -8.03054 -8.05372 -8.0756 -8.09603
-8.11485 -8.1319 -8.14702 -8.16002 -8.17073 -8.17896
-8.18452 -8.18722 -8.18686 -8.18323 -8.17613 -8.16536
-8.1507 -8.13195 -8.10889 -8.08133 -8.04905 -8.01186
-7.96954 -7.92192 -7.86878 -7.80996 -7.74528 -7.67457
-7.59766 -7.51442 -7.42469 -7.32834 -7.22523 -7.11535
-6.99878 -6.87558 -6.7454 -6.60777 -6.46266 -6.31027
-6.15065 -5.98382 -5.80982 -5.62869 -5.44047 -5.24525
-5.0431 -4.83413 -4.61846 -4.39623 -4.16759 -3.9327
-3.69175 -3.44494 -3.19248 -2.93461 -2.67157 -2.4036
-2.13097 -1.85397 -1.57287 -1.28797 -0.999598 -0.708052
-0.413665 -0.116763 0.182327 0.48329 0.785789 1.08945
1.39391 1.69883 2.0039 2.30877 2.61309 2.91653
3.21876 3.51946 3.81831 4.11502 4.40928 4.70082
4.98935 5.27462 5.55637 5.83438 6.10843 6.37829
6.64379 6.90474 7.16098 7.41235 7.65873 7.89999
8.13602 8.36672 8.59203 8.81187 9.02619 9.23497
9.43835 9.63617 9.8281 10.0141 10.1943 10.3685
10.537 10.6997 10.8568 11.0083 11.1546 11.2968
11.4361 11.5825 11.7327 11.9685 12.0371 12.0869
12.1445 12.1838 12.1999 12.1944 12.1643 12.105
12.0126 11.8823 11.7093 11.4877 11.2114 10.8742
10.4674 9.98474 9.41112 8.74878 7.95032 7.08228
5.91698 4.92122 2.82905 2.48979
        </DataArray>
        <DataArray type='Float32' Name='U' NumberOfComponents='3' format='ascii'>
0 0 0 0 0 0
0 0 0 0 0 0
0 0 0 0 0 0
0 0 0 0 0 0
0 0 0 0 0 0
0 0 0 0 0 0
0 0 0 0 0 0
0 0 0 0 0 0
0 0 0 0 0 0
0 0 0 0 0 0
0 0 0 0 0 0
0 0 0 0 0 0
0 0 0 0 0 0
0 0 0 0 0 0
0 0 0 0 0 0
0 0 0 0 0 0
0 0 0 0 0 0
0 0 0 0 0 0
0 0 0 0 0 0
0 0 0 0 0 0
0 0 0 0 0 0
0 0 0 0 0 0
0 0 0 0 0 0
0 0 0 0 0 0
0 0 0 0 0 0
0 0 0 0 0 0
0 0 0 0 0 0
0 0 0 0 0 0
0 0 0 0 0 0
0 0 0 0 0 0
0 0 0 0 0 0
0 0 0 0 0 0
0 0 0 0 0 0
0 0 0 0 0 0
0 0 0 0 0 0
0 0 0 0 0 0
0 0 0 0 0 0
0 0 0 0 0 0
0 0 0 0 0 0
0 0 0 0 0 0
0 0 0 0 0 0
0 0 0 0 0 0
0 0 0 0 0 0
0 0 0 0 0 0
0 0 0 0 0 0
0 0 0 0 0 0
0 0 0 0 0 0
0 0 0 0 0 0
0 0 0 0 0 0
0 0 0 0 0 0
0 0 0 0 0 0
0 0 0 0 0 0
0 0 0 0 0 0
0 0 0 0 0 0
0 0 0 0 0 0
0 0 0 0 0 0
0 0 0 0 0 0
0 0 0 0 0 0
0 0 0 0 0 0
0 0 0 0 0 0
0 0 0 0 0 0
0 0 0 0 0 0
0 0 0 0 0 0
0 0 0 0 0 0
0 0 0 0 0 0
0 0 0 0 0 0
0 0 0 0 0 0
0 0 0 0 0 0
0 0 0 0 0 0
0 0 0 0 0 0
0 0 0 0 0 0
0 0 0 0 0 0
0 0 0 0 0 0
0 0 0 0 0 0
0 0 0 0 0 0
0 0 0 0 0 0
0 0 0 0 0 0
0 0 0 0 0 0
0 0 0 0 0 0
0 0 0 0 0 0
0 0 0 0 0 0
0 0 0 0 0 0
0 0 0 0 0 0
0 0 0 0 0 0
0 0 0 0 0 0
0 0 0 0 0 0
0 0 0 0 0 0
0 0 0 0 0 0
0 0 0 0 0 0
0 0 0 0 0 0
0 0 0 0 0 0
0 0 0 0 0 0
0 0 0 0 0 0
0 0 0 0 0 0
0 0 0 0 0 0
0 0 0 0 0 0
0 0 0 0 0 0
0 0 0 0 0 0
0 0 0 0 0 0
0 0 0 0 0 0
0 0 0 0 0 0
0 0 0 0 0 0
0 0 0 0 0 0
0 0 0 0 0 0
0 0 0 0 0 0
0 0 0 0 0 0
0 0 0 0 0 0
0 0 0 0 0 0
0 0 0 0 0 0
0 0 0 0 0 0
0 0 0 0 0 0
0 0 0 0 0 0
0 0 0 0 0 0
0 0 0 0 0 0
0 0 0 0 0 0
0 0 0 0 0 0
0 0 0 0 0 0
0 0 0 0 0 0
0 0 0 0 0 0
0 0 0 0 0 0
0 0 0 0 0 0
0 0 0 0 0 0
0 0 0 0 0 0
0 0 0 0 0 0
0 0 0 0 0 0
        </DataArray>
      </CellData>
      <PointData>
        <DataArray type='Float32' Name='epsilon' format='ascii'>
1086.11 1786.76 1786.76 1086.11 3064.8 3064.8
4035.41 4035.41 4616.11 4616.11 4897.45 4897.45
4976.33 4976.33 4952.05 4952.05 4884.5 4884.5
4782.46 4782.46 4673.85 4673.85 4568.28 4568.28
4470.86 4470.86 4382.08 4382.08 4303.95 4303.95
4233.41 4233.41 4174.5 4174.5 4117.86 4117.86
2039.7 2039.7 0.168483 0.168483 0.411741 0.411741
1.03685 1.03685 1.82008 1.82008 2.57876 2.57876
3.23333 3.23333 3.76691 3.76691 4.20649 4.20649
4.83567 4.83567 5.78057 5.78057 6.80722 6.80722
7.78866 7.78866 8.69053 8.69053 9.49563 9.49563
10.1943 10.1943 10.8005 10.8005 11.3703 11.3703
11.8678 11.8678 12.3311 12.3311 12.8218 12.8218
13.3851 13.3851 14.0952 14.0952 14.8641 14.8641
16.1417 16.1417 17.4348 17.4348 27.3228 27.3228
186.785 186.785 0.168953 0.168953 0.231437 0.231437
0.361532 0.361532 0.495767 0.495767 0.623097 0.623097
0.739479 0.739479 0.844258 0.844258 0.938214 0.938214
1.02536 1.02536 1.11162 1.11162 1.19999 1.19999
1.29225 1.29225 1.39093 1.39093 1.49799 1.49799
1.61437 1.61437 1.74029 1.74029 1.87616 1.87616
2.0248 2.0248 2.196 2.196 2.40905 2.40905
2.67772 2.67772 3.0006 3.0006 3.37494 3.37494
3.80453 3.80453 4.29721 4.29721 4.86279 4.86279
5.51176 5.51176 6.25409 6.25409 7.09743 7.09743
8.04568 8.04568 9.10172 9.10172 10.2682 10.2682
11.5451 11.5451 12.9315 12.9315 14.4262 14.4262
16.028 16.028 17.736 17.736 19.5492 19.5492
21.4674 21.4674 23.4909 23.4909 25.6216 25.6216
27.8629 27.8629 30.2207 30.2207 32.7044 32.7044
35.3282 35.3282 38.1137 38.1137 41.0923 41.0923
44.2483 44.2483 47.5502 47.5502 51.0017 51.0017
54.6069 54.6069 58.3707 58.3707 62.2971 62.2971
66.3908 66.3908 70.6562 70.6562 75.0979 75.0979
79.7201 79.7201 84.5272 84.5272 89.5233 89.5233