<?xml version='1.0'?>
<!-- patch='outlet' time='283' index='283' -->
<VTKFile type='PolyData' version='0.1' byte_order='LittleEndian' header_type='UInt64'>
  <PolyData>
    <FieldData>
      <DataArray type='Float32' Name='TimeValue' NumberOfTuples='1' format='ascii'>
283
      </DataArray>
    </FieldData>
    <Piece NumberOfPoints='116' NumberOfPolys='57'>
      <Points>
        <DataArray type='Float32' Name='Points' NumberOfComponents='3' format='ascii'>
0.29 -0.0166 -0.0005 0.29 -0.0159852 -0.0005
0.29 -0.0159852 0.0005 0.29 -0.0166 0.0005
0.29 -0.0153704 -0.0005 0.29 -0.0153704 0.0005
0.29 -0.0147556 -0.0005 0.29 -0.0147556 0.0005
0.29 -0.0141407 -0.0005 0.29 -0.0141407 0.0005
0.29 -0.0135259 -0.0005 0.29 -0.0135259 0.0005
0.29 -0.0129111 -0.0005 0.29 -0.0129111 0.0005
0.29 -0.0122963 -0.0005 0.29 -0.0122963 0.0005
0.29 -0.0116815 -0.0005 0.29 -0.0116815 0.0005
0.29 -0.0110667 -0.0005 0.29 -0.0110667 0.0005
0.29 -0.0104519 -0.0005 0.29 -0.0104519 0.0005
0.29 -0.00983704 -0.0005 0.29 -0.00983704 0.0005
0.29 -0.00922222 -0.0005 0.29 -0.00922222 0.0005
0.29 -0.00860741 -0.0005 0.29 -0.00860741 0.0005
0.29 -0.00799259 -0.0005 0.29 -0.00799259 0.0005
0.29 -0.00737778 -0.0005 0.29 -0.00737778 0.0005
0.29 -0.00676296 -0.0005 0.29 -0.00676296 0.0005
0.29 -0.00614815 -0.0005 0.29 -0.00614815 0.0005
0.29 -0.00553333 -0.0005 0.29 -0.00553333 0.0005
0.29 -0.00491852 -0.0005 0.29 -0.00491852 0.0005
0.29 -0.0043037 -0.0005 0.29 -0.0043037 0.0005
0.29 -0.00368889 -0.0005 0.29 -0.00368889 0.0005
0.29 -0.00307407 -0.0005 0.29 -0.00307407 0.0005
0.29 -0.00245926 -0.0005 0.29 -0.00245926 0.0005
0.29 -0.00184444 -0.0005 0.29 -0.00184444 0.0005
0.29 -0.00122963 -0.0005 0.29 -0.00122963 0.0005
0.29 -0.000614815 -0.0005 0.29 -0.000614815 0.0005
0.29 0 -0.0005 0.29 0 0.0005
0.29 0.000737778 -0.0005 0.29 0.000737778 0.0005
0.29 0.00147556 -0.0005 0.29 0.00147556 0.0005
0.29 0.00221333 -0.0005 0.29 0.00221333 0.0005
0.29 0.00295111 -0.0005 0.29 0.00295111 0.0005
0.29 0.00368889 -0.0005 0.29 0.00368889 0.0005
0.29 0.00442667 -0.0005 0.29 0.00442667 0.0005
0.29 0.00516444 -0.0005 0.29 0.00516444 0.0005
0.29 0.00590222 -0.0005 0.29 0.00590222 0.0005
0.29 0.00664 -0.0005 0.29 0.00664 0.0005
0.29 0.00737778 -0.0005 0.29 0.00737778 0.0005
0.29 0.00811556 -0.0005 0.29 0.00811556 0.0005
0.29 0.00885333 -0.0005 0.29 0.00885333 0.0005
0.29 0.00959111 -0.0005 0.29 0.00959111 0.0005
0.29 0.0103289 -0.0005 0.29 0.0103289 0.0005
0.29 0.0110667 -0.0005 0.29 0.0110667 0.0005
0.29 0.011741 -0.0005 0.29 0.011741 0.0005
0.29 0.0123518 -0.0005 0.29 0.0123518 0.0005
0.29 0.012905 -0.0005 0.29 0.012905 0.0005
0.29 0.0134061 -0.0005 0.29 0.0134061 0.0005
0.29 0.0138599 -0.0005 0.29 0.0138599 0.0005
0.29 0.0142709 -0.0005 0.29 0.0142709 0.0005
0.29 0.0146432 -0.0005 0.29 0.0146432 0.0005
0.29 0.0149803 -0.0005 0.29 0.0149803 0.0005
0.29 0.0152857 -0.0005 0.29 0.0152857 0.0005
0.29 0.0155623 -0.0005 0.29 0.0155623 0.0005
0.29 0.0158129 -0.0005 0.29 0.0158129 0.0005
0.29 0.0160398 -0.0005 0.29 0.0160398 0.0005
0.29 0.0162453 -0.0005 0.29 0.0162453 0.0005
0.29 0.0164314 -0.0005 0.29 0.0164314 0.0005
0.29 0.0166 -0.0005 0.29 0.0166 0.0005
        </DataArray>
      </Points>
      <Polys>
        <DataArray type='Int32' Name='connectivity' format='ascii'>
0 1 2 3 1 4
5 2 4 6 7 5
6 8 9 7 8 10
11 9 10 12 13 11
12 14 15 13 14 16
17 15 16 18 19 17
18 20 21 19 20 22
23 21 22 24 25 23
24 26 27 25 26 28
29 27 28 30 31 29
30 32 33 31 32 34
35 33 34 36 37 35
36 38 39 37 38 40
41 39 40 42 43 41
42 44 45 43 44 46
47 45 46 48 49 47
48 50 51 49 50 52
53 51 52 54 55 53
54 56 57 55 56 58
59 57 58 60 61 59
60 62 63 61 62 64
65 63 64 66 67 65
66 68 69 67 68 70
71 69 70 72 73 71
72 74 75 73 74 76
77 75 76 78 79 77
78 80 81 79 80 82
83 81 82 84 85 83
84 86 87 85 86 88
89 87 88 90 91 89
90 92 93 91 92 94
95 93 94 96 97 95
96 98 99 97 98 100
101 99 100 102 103 101
102 104 105 103 104 106
107 105 106 108 109 107
108 110 111 109 110 112
113 111 112 114 115 113
        </DataArray>
        <DataArray type='Int32' Name='offsets' format='ascii'>
4 8 12 16 20 24
28 32 36 40 44 48
52 56 60 64 68 72
76 80 84 88 92 96
100 104 108 112 116 120
124 128 132 136 140 144
148 152 156 160 164 168
172 176 180 184 188 192
196 200 204 208 212 216
220 224 228
        </DataArray>
      </Polys>
      <CellData>
        <DataArray type='Float32' Name='epsilon' format='ascii'>
1101.33 348.289 218.208 174.01 153.545 142.515
136.058 132.07 129.551 127.935 126.862 126.09
125.449 124.811 124.078 123.171 122.027 120.595
118.83 116.698 114.171 111.228 107.854 104.042
99.7939 95.1178 90.0318 84.0137 76.9463 69.4706
61.7152 53.8433 46.0293 38.5217 31.582 25.5044
20.602 17.2325 15.8175 16.9276 21.3375 28.8087
37.5058 45.6682 53.4321 61.3436 70.2912 81.4984
96.704 119.011 153.454 209.504 306.14 484.853
850.726 1758.34 5727.82
        </DataArray>
        <DataArray type='Float32' Name='k' format='ascii'>
0.899428 1.22309 1.46428 1.63585 1.77038 1.88085
1.9738 2.05283 2.12005 2.17679 2.2239 2.26193
2.29122 2.312 2.32431 2.32832 2.32417 2.31178
2.29115 2.26231 2.22529 2.18013 2.12692 2.06578
1.99688 1.92047 1.83684 1.73734 1.6198 1.49443
1.36276 1.22652 1.08817 0.950653 0.817514 0.692895
0.58135 0.487568 0.416871 0.378382 0.377515 0.41296
0.462647 0.507765 0.542222 0.566871 0.583928 0.595921
0.605337 0.614616 0.626427 0.643725 0.670213 0.710495
0.766468 0.836427 1.1411
        </DataArray>
        <DataArray type='Float32' Name='nut' format='ascii'>
6.61084e-05 0.000386564 0.000884337 0.00138407 0.00183713 0.00223404
0.00257708 0.00287174 0.00312244 0.00333341 0.00350867 0.00365189
0.00376623 0.00385447 0.00391865 0.00396114 0.00398402 0.00398846
0.00397579 0.00394714 0.00390354 0.00384586 0.00377493 0.00369148
0.00359621 0.00348976 0.0033728 0.00323341 0.00306885 0.00289329
0.00270826 0.00251456 0.00231527 0.00211145 0.00190456 0.0016942
0.00147641 0.00124155 0.000988798 0.000761217 0.000601131 0.000532764
0.000513622 0.000508104 0.000495217 0.000471456 0.000436576 0.000392167
0.00034103 0.00028567 0.000230147 0.000178012 0.000132053 9.37033e-05
6.215e-05 3.58094e-05 2.04599e-05
        </DataArray>
        <DataArray type='Float32' Name='p' format='ascii'>
0 0 0 0 0 0
0 0 0 0 0 0
0 0 0 0 0 0
0 0 0 0 0 0
0 0 0 0 0 0
0 0 0 0 0 0
0 0 0 0 0 0
0 0 0 0 0 0
0 0 0 0 0 0
0 0 0
        </DataArray>
        <DataArray type='Float32' Name='U' NumberOfComponents='3' format='ascii'>
5.42291 0.487994 4.13546e-17 5.89686 0.489395 -2.05449e-17
6.06298 0.44878 0 6.16416 0.40734 0
6.24469 0.367647 0 6.3172 0.329821 5.19321e-18
6.38662 0.293564 -4.55892e-18 6.45526 0.258638 -4.10049e-18
6.52435 0.22487 1.90065e-18 6.59456 0.192122 1.78061e-18
6.66631 0.160284 0 6.73983 0.129265 0
6.81527 0.0989914 0 6.8927 0.0694008 1.52592e-18
6.97213 0.0404406 -2.99354e-18 7.05356 0.012066 1.47599e-18
7.13695 -0.0157591 0 7.22223 -0.0430657 7.12567e-19
7.30931 -0.0698817 -7.14085e-19 7.3981 -0.0962298 7.00159e-19
7.48847 -0.12213 -1.06246e-20 7.58029 -0.1476 -7.05182e-19
7.6734 -0.172657 0 7.7676 -0.19731 3.45858e-19
7.86269 -0.221557 -5.27082e-19 7.95842 -0.245398 1.77814e-19
8.05453 -0.26899 0 8.16034 -0.295135 1.9304e-19
8.27531 -0.323882 -2.09596e-19 8.38899 -0.352236 0
8.50036 -0.380048 0 8.60818 -0.40735 -8.65558e-19
8.71091 -0.434153 9.25341e-19 8.80664 -0.460443 9.32429e-19
8.89301 -0.486185 -1.01132e-18 8.96712 -0.511333 -2.08218e-18
9.02543 -0.535806 4.56337e-18 9.06333 -0.559477 -2.55444e-18
9.07364 -0.582247 0 9.04381 -0.603811 0
8.95806 -0.623508 3.72719e-18 8.81232 -0.640584 -1.97809e-20
8.63118 -0.654335 -1.25227e-17 8.44494 -0.66514 8.42141e-18
8.26312 -0.673627 0 8.08719 -0.680154 8.67677e-18
7.91533 -0.684795 8.26487e-20 7.74371 -0.687407 8.59879e-20
7.56675 -0.687639 -9.8836e-18 7.37665 -0.684875 -1.09221e-17
7.16224 -0.678121 -9.75975e-20 6.90712 -0.665782 2.84189e-17
6.58588 -0.64531 -1.6909e-17 6.15783 -0.612606 0
5.55171 -0.560242 0 4.61926 -0.471283 -3.71377e-17
3.11494 -0.31423 5.82e-17
        </DataArray>
      </CellData>
      <PointData>
        <DataArray type='Float32' Name='epsilon' format='ascii'>
1101.33 724.81 724.81 1101.33 283.249 283.249
196.109 196.109 163.777 163.777 148.03 148.03
139.286 139.286 134.064 134.064 130.811 130.811
128.743 128.743 127.398 127.398 126.476 126.476
125.77 125.77 125.13 125.13 124.445 124.445
123.624 123.624 122.599 122.599 121.311 121.311
119.713 119.713 117.764 117.764 115.435 115.435
112.7 112.7 109.541 109.541 105.948 105.948
101.918 101.918 97.4558 97.4558 92.5748 92.5748
87.1084 87.1084 80.48 80.48 73.2085 73.2085
65.5929 65.5929 57.7793 57.7793 49.9363 49.9363
42.2755 42.2755 35.0518 35.0518 28.5432 28.5432
23.0532 23.0532 18.9172 18.9172 16.525 16.525
16.3725 16.3725 19.1325 19.1325 25.0731 25.0731
33.2222 33.2222 41.646 41.646 49.5987 49.5987
57.4304 57.4304 65.8585 65.8585 75.9385 75.9385
89.1512 89.1512 107.919 107.919 136.312 136.312
181.587 181.587 257.977 257.977 395.735 395.735
668.194 668.194 1305.36 1305.36 3746.07 3746.07
5727.82 5727.82
        </DataArray>
        <DataArray type='Float32' Name='k' format='ascii'>
0.899428 1.06126 1.06126 0.899428 1.34369 1.34369
1.55007 1.55007 1.70311 1.70311 1.82562 1.82562
1.92733 1.92733 2.01331 2.01331 2.08644 2.08644
2.14842 2.14842 2.20035 2.20035 2.24291 2.24291
2.27658 2.27658 2.30161 2.30161 2.31816 2.31816
2.32631 2.32631 2.32625 2.32625 2.31798 2.31798
2.30147 2.30147 2.27673 2.27673 2.2438 2.2438
2.20271 2.20271 2.15353 2.15353 2.09635 2.09635
2.03133 2.03133 1.95868 1.95868 1.87865 1.87865
1.78851 1.78851 1.67857 1.67857 1.55711 1.55711
1.42859 1.42859 1.29464 1.29464 1.15735 1.15735
1.01941 1.01941 0.884084 0.884084 0.755204 0.755204
0.637123 0.637123 0.534459 0.534459 0.452219 0.452219
0.397626 0.397626 0.377948 0.377948 0.395238 0.395238
0.438175 0.438175 0.485532 0.485532 0.525209 0.525209
0.554679 0.554679 0.575478 0.575478 0.589971 0.589971
0.60066 0.60066 0.610002 0.610002 0.620549 0.620549
0.635109 0.635109 0.657012 0.657012 0.690408 0.690408
0.738543 0.738543 0.801511 0.801511 0.988993 0.988993
1.1411 1.1411
        </DataArray>
        <DataArray type='Float32' Name='nut' format='ascii'>
6.61084e-05 0.000226336 0.000226336 6.61084e-05 0.00063545 0.00063545
0.0011342 0.0011342 0.0016106 0.0016106 0.00203558 0.00203558
0.00240556 0.00240556 0.00272441 0.00272441 0.00299709 0.00299709
0.00322792 0.00322792 0.00342104 0.00342104 0.00358028 0.00358028
0.00370906 0.00370906 0.00381035 0.00381035 0.00388656 0.00388656
0.00393989 0.00393989 0.00397258 0.00397258 0.00398624 0.00398624
0.00398212 0.00398212 0.00396146 0.00396146 0.00392534 0.00392534
0.0038747 0.0038747 0.0038104 0.0038104 0.0037332 0.0037332
0.00364384 0.00364384 0.00354299 0.00354299 0.00343128 0.00343128
0.00330509 0.00330509 0.00315113 0.00315113 0.00298107 0.00298107
0.00280077 0.00280077 0.00261141 0.00261141 0.00241492 0.00241492
0.00221336 0.00221336 0.00200801 0.00200801 0.00179938 0.00179938
0.0015853 0.0015853 0.00135898 0.00135898 0.00111517 0.00111517
0.000875007 0.000875007 0.000681174 0.000681174 0.000566948 0.000566948
0.00052305 0.00052305 0.000510823 0.000510823 0.00050158 0.00050158
0.000483209 0.000483209 0.000453856 0.000453856 0.000414199 0.000414199
0.00036643 0.00036643 0.000313197 0.000313197 0.00025778 0.00025778
0.000203979 0.000203979 0.000154959 0.000154959 0.000112827 0.000112827
7.78918e-05 7.78918e-05 4.89556e-05 4.89556e-05 2.81231e-05 2.81231e-05
2.04599e-05 2.04599e-05
        </DataArray>
        <DataArray type='Float32' Name='p' format='ascii'>
0 0 0 0 0 0
0 0 0 0 0 0
0 0 0 0 0 0
0 0 0 0 0 0
0 0 0 0 0 0
0 0 0 0 0 0
0 0 0 0 0 0
0 0 0 0 0 0
0 0 0 0 0 0
0 0 0 0 0 0
0 0 0 0 0 0
0 0 0 0 0 0
0 0 0 0 0 0
0 0 0 0 0 0
0 0 0 0 0 0
0 0 0 0 0 0
0 0 0 0 0 0
0 0 0 0 0 0
0 0 0 0 0 0
0 0
        </DataArray>
        <DataArray type='Float32' Name='U' NumberOfComponents='3' format='ascii'>
5.42291 0.487994 4.13546e-17 5.65988 0.488694 1.04049e-17
5.65988 0.488694 1.04049e-17 5.42291 0.487994 4.13546e-17
5.97992 0.469088 -1.02724e-17 5.97992 0.469088 -1.02724e-17
6.11357 0.42806 0 6.11357 0.42806 0
6.20442 0.387493 0 6.20442 0.387493 0
6.28094 0.348734 2.5966e-18 6.28094 0.348734 2.5966e-18
6.35191 0.311693 3.17145e-19 6.35191 0.311693 3.17145e-19
6.42094 0.276101 -4.3297e-18 6.42094 0.276101 -4.3297e-18
6.48981 0.241754 -1.09992e-18 6.48981 0.241754 -1.09992e-18
6.55945 0.208496 1.84063e-18 6.55945 0.208496 1.84063e-18
6.63043 0.176203 8.90305e-19 6.63043 0.176203 8.90305e-19
6.70307 0.144774 0 6.70307 0.144774 0
6.77755 0.114128 0 6.77755 0.114128 0
6.85398 0.0841961 7.6296e-19 6.85398 0.0841961 7.6296e-19
6.93242 0.0549207 -7.3381e-19 6.93242 0.0549207 -7.3381e-19
7.01285 0.0262533 -7.58775e-19 7.01285 0.0262533 -7.58775e-19
7.09525 -0.00184655 7.37995e-19 7.09525 -0.00184655 7.37995e-19
7.17959 -0.0294124 3.56283e-19 7.17959 -0.0294124 3.56283e-19
7.26577 -0.0564737 -7.59e-22 7.26577 -0.0564737 -7.59e-22
7.3537 -0.0830557 -6.963e-21 7.3537 -0.0830557 -6.963e-21
7.44328 -0.10918 3.44767e-19 7.44328 -0.10918 3.44767e-19
7.53438 -0.134865 -3.57903e-19 7.53438 -0.134865 -3.57903e-19
7.62684 -0.160129 -3.52591e-19 7.62684 -0.160129 -3.52591e-19
7.7205 -0.184984 1.72929e-19 7.7205 -0.184984 1.72929e-19
7.81515 -0.209433 -9.0612e-20 7.81515 -0.209433 -9.0612e-20
7.91055 -0.233478 -1.74634e-19 7.91055 -0.233478 -1.74634e-19
8.00648 -0.257194 8.8907e-20 8.00648 -0.257194 8.8907e-20
8.10593 -0.28169 9.37711e-20 8.10593 -0.28169 9.37711e-20
8.21782 -0.309509 -8.278e-21 8.21782 -0.309509 -8.278e-21
8.33215 -0.338059 -1.04798e-19 8.33215 -0.338059 -1.04798e-19
8.44468 -0.366142 0 8.44468 -0.366142 0
8.55427 -0.393699 -4.32779e-19 8.55427 -0.393699 -4.32779e-19
8.65954 -0.420752 2.98915e-20 8.65954 -0.420752 2.98915e-20
8.75877 -0.447298 9.28885e-19 8.75877 -0.447298 9.28885e-19
8.84982 -0.473314 -3.94455e-20 8.84982 -0.473314 -3.94455e-20
8.93007 -0.498759 -1.54675e-18 8.93007 -0.498759 -1.54675e-18
8.99627 -0.52357 1.2406e-18 8.99627 -0.52357 1.2406e-18
9.04438 -0.547642 1.00446e-18 9.04438 -0.547642 1.00446e-18
9.06849 -0.570862 -1.27722e-18 9.06849 -0.570862 -1.27722e-18
9.05873 -0.593029 0 9.05873 -0.593029 0
9.00093 -0.61366 1.86359e-18 9.00093 -0.61366 1.86359e-18
8.88519 -0.632046 1.8537e-18 8.88519 -0.632046 1.8537e-18
8.7204 -0.647562 -6.3646e-18 8.7204 -0.647562 -6.3646e-18
8.53671 -0.659816 -1.89933e-18 8.53671 -0.659816 -1.89933e-18
8.35289 -0.669437 4.15803e-18 8.35289 -0.669437 4.15803e-18
8.17421 -0.676926 4.38503e-18 8.17421 -0.676926 4.38503e-18
8.00047 -0.682496 4.34026e-18 8.00047 -0.682496 4.34026e-18
7.82885 -0.686111 8.43313e-20 7.82885 -0.686111 8.43313e-20
7.65465 -0.687524 -4.93159e-18 7.65465 -0.687524 -4.93159e-18
7.47117 -0.686249 -1.04057e-17 7.47117 -0.686249 -1.04057e-17
7.26895 -0.681482 -5.4848e-18 7.26895 -0.681482 -5.4848e-18
7.03419 -0.671928 1.42157e-17 7.03419 -0.671928 1.42157e-17
6.74598 -0.655513 5.68214e-18 6.74598 -0.655513 5.68214e-18
6.37128 -0.628914 -8.43195e-18 6.37128 -0.628914 -8.43195e-18
5.8541 -0.586366 0 5.8541 -0.586366 0
5.08463 -0.515681 -1.86028e-17 5.08463 -0.515681 -1.86028e-17
3.86597 -0.392638 1.06031e-17 3.86597 -0.392638 1.06031e-17
3.11494 -0.31423 5.82e-17 3.11494 -0.31423 5.82e-17
        </DataArray>
      </PointData>
    </Piece>
  </PolyData>
</VTKFile>
