<?xml version='1.0'?>
<!-- patch='upperWall' time='283' index='283' -->
<VTKFile type='PolyData' version='0.1' byte_order='LittleEndian' header_type='UInt64'>
  <PolyData>
    <FieldData>
      <DataArray type='Float32' Name='TimeValue' NumberOfTuples='1' format='ascii'>
283
      </DataArray>
    </FieldData>
    <Piece NumberOfPoints='448' NumberOfPolys='223'>
      <Points>
        <DataArray type='Float32' Name='Points' NumberOfComponents='3' format='ascii'>
-0.0206 0.0254 -0.0005 -0.0206 0.0254 0.0005
-0.0190172 0.0254 0.0005 -0.0190172 0.0254 -0.0005
-0.0174976 0.0254 0.0005 -0.0174976 0.0254 -0.0005
-0.0160387 0.0254 0.0005 -0.0160387 0.0254 -0.0005
-0.0146381 0.0254 0.0005 -0.0146381 0.0254 -0.0005
-0.0132934 0.0254 0.0005 -0.0132934 0.0254 -0.0005
-0.0120025 0.0254 0.0005 -0.0120025 0.0254 -0.0005
-0.0107632 0.0254 0.0005 -0.0107632 0.0254 -0.0005
-0.00957337 0.0254 0.0005 -0.00957337 0.0254 -0.0005
-0.00843108 0.0254 0.0005 -0.00843108 0.0254 -0.0005
-0.00733443 0.0254 0.0005 -0.00733443 0.0254 -0.0005
-0.0062816 0.0254 0.0005 -0.0062816 0.0254 -0.0005
-0.00527083 0.0254 0.0005 -0.00527083 0.0254 -0.0005
-0.00430044 0.0254 0.0005 -0.00430044 0.0254 -0.0005
-0.00336883 0.0254 0.0005 -0.00336883 0.0254 -0.0005
-0.00247443 0.0254 0.0005 -0.00247443 0.0254 -0.0005
-0.00161577 0.0254 0.0005 -0.00161577 0.0254 -0.0005
-0.000791418 0.0254 0.0005 -0.000791418 0.0254 -0.0005
0 0.0254 0.0005 0 0.0254 -0.0005
0.000528387 0.0254 0.0005 0.000528387 0.0254 -0.0005
0.00106088 0.0254 0.0005 0.00106088 0.0254 -0.0005
0.00159752 0.0254 0.0005 0.00159752 0.0254 -0.0005
0.00213833 0.0254 0.0005 0.00213833 0.0254 -0.0005
0.00268334 0.0254 0.0005 0.00268334 0.0254 -0.0005
0.00323259 0.0254 0.0005 0.00323259 0.0254 -0.0005
0.00378611 0.0254 0.0005 0.00378611 0.0254 -0.0005
0.00434393 0.0254 0.0005 0.00434393 0.0254 -0.0005
0.00490609 0.0254 0.0005 0.00490609 0.0254 -0.0005
0.00547262 0.0254 0.0005 0.00547262 0.0254 -0.0005
0.00604356 0.0254 0.0005 0.00604356 0.0254 -0.0005
0.00661893 0.0254 0.0005 0.00661893 0.0254 -0.0005
0.00719878 0.0254 0.0005 0.00719878 0.0254 -0.0005
0.00778313 0.0254 0.0005 0.00778313 0.0254 -0.0005
0.00837203 0.0254 0.0005 0.00837203 0.0254 -0.0005
0.00896551 0.0254 0.0005 0.00896551 0.0254 -0.0005
0.0095636 0.0254 0.0005 0.0095636 0.0254 -0.0005
0.0101663 0.0254 0.0005 0.0101663 0.0254 -0.0005
0.0107738 0.0254 0.0005 0.0107738 0.0254 -0.0005
0.0113859 0.0254 0.0005 0.0113859 0.0254 -0.0005
0.0120028 0.0254 0.0005 0.0120028 0.0254 -0.0005
0.0126245 0.0254 0.0005 0.0126245 0.0254 -0.0005
0.0132511 0.0254 0.0005 0.0132511 0.0254 -0.0005
0.0138825 0.0254 0.0005 0.0138825 0.0254 -0.0005
0.0145188 0.0254 0.0005 0.0145188 0.0254 -0.0005
0.0151601 0.0254 0.0005 0.0151601 0.0254 -0.0005
0.0158063 0.0254 0.0005 0.0158063 0.0254 -0.0005
0.0164576 0.0254 0.0005 0.0164576 0.0254 -0.0005
0.0171139 0.0254 0.0005 0.0171139 0.0254 -0.0005
0.0177754 0.0254 0.0005 0.0177754 0.0254 -0.0005
0.018442 0.0254 0.0005 0.018442 0.0254 -0.0005
0.0191137 0.0254 0.0005 0.0191137 0.0254 -0.0005
0.0197907 0.0254 0.0005 0.0197907 0.0254 -0.0005
0.020473 0.0254 0.0005 0.020473 0.0254 -0.0005
0.0211606 0.0254 0.0005 0.0211606 0.0254 -0.0005
0.0218535 0.0254 0.0005 0.0218535 0.0254 -0.0005
0.0225517 0.0254 0.0005 0.0225517 0.0254 -0.0005
0.0232555 0.0254 0.0005 0.0232555 0.0254 -0.0005
0.0239647 0.0254 0.0005 0.0239647 0.0254 -0.0005
0.0246794 0.0254 0.0005 0.0246794 0.0254 -0.0005
0.0253996 0.0254 0.0005 0.0253996 0.0254 -0.0005
0.0261255 0.0254 0.0005 0.0261255 0.0254 -0.0005
0.026857 0.0254 0.0005 0.026857 0.0254 -0.0005
0.0275942 0.0254 0.0005 0.0275942 0.0254 -0.0005
0.0283371 0.0254 0.0005 0.0283371 0.0254 -0.0005
0.0290858 0.0254 0.0005 0.0290858 0.0254 -0.0005
0.0298403 0.0254 0.0005 0.0298403 0.0254 -0.0005
0.0306007 0.0254 0.0005 0.0306007 0.0254 -0.0005
0.031367 0.0254 0.0005 0.031367 0.0254 -0.0005
0.0321393 0.0254 0.0005 0.0321393 0.0254 -0.0005
0.0329175 0.0254 0.0005 0.0329175 0.0254 -0.0005
0.0337019 0.0254 0.0005 0.0337019 0.0254 -0.0005
0.0344923 0.0254 0.0005 0.0344923 0.0254 -0.0005
0.0352888 0.0254 0.0005 0.0352888 0.0254 -0.0005
0.0360916 0.0254 0.0005 0.0360916 0.0254 -0.0005
0.0369006 0.0254 0.0005 0.0369006 0.0254 -0.0005
0.0377158 0.0254 0.0005 0.0377158 0.0254 -0.0005
0.0385375 0.0254 0.0005 0.0385375 0.0254 -0.0005
0.0393655 0.0254 0.0005 0.0393655 0.0254 -0.0005
0.0401999 0.0254 0.0005 0.0401999 0.0254 -0.0005
0.0410408 0.0254 0.0005 0.0410408 0.0254 -0.0005
0.0418883 0.0254 0.0005 0.0418883 0.0254 -0.0005
0.0427424 0.0254 0.0005 0.0427424 0.0254 -0.0005
0.0436031 0.0254 0.0005 0.0436031 0.0254 -0.0005
0.0444704 0.0254 0.0005 0.0444704 0.0254 -0.0005
0.0453446 0.0254 0.0005 0.0453446 0.0254 -0.0005
0.0462255 0.0254 0.0005 0.0462255 0.0254 -0.0005
0.0471133 0.0254 0.0005 0.0471133 0.0254 -0.0005
0.048008 0.0254 0.0005 0.048008 0.0254 -0.0005
0.0489096 0.0254 0.0005 0.0489096 0.0254 -0.0005
0.0498183 0.0254 0.0005 0.0498183 0.0254 -0.0005
0.050734 0.0254 0.0005 0.050734 0.0254 -0.0005
0.0516568 0.0254 0.0005 0.0516568 0.0254 -0.0005
0.0525868 0.0254 0.0005 0.0525868 0.0254 -0.0005
0.053524 0.0254 0.0005 0.053524 0.0254 -0.0005
0.0544686 0.0254 0.0005 0.0544686 0.0254 -0.0005
0.0554204 0.0254 0.0005 0.0554204 0.0254 -0.0005
0.0563797 0.0254 0.0005 0.0563797 0.0254 -0.0005
0.0573464 0.0254 0.0005 0.0573464 0.0254 -0.0005
0.0583206 0.0254 0.0005 0.0583206 0.0254 -0.0005
0.0593025 0.0254 0.0005 0.0593025 0.0254 -0.0005
0.0602919 0.0254 0.0005 0.0602919 0.0254 -0.0005
0.0612891 0.0254 0.0005 0.0612891 0.0254 -0.0005
0.0622939 0.0254 0.0005 0.0622939 0.0254 -0.0005
0.0633067 0.0254 0.0005 0.0633067 0.0254 -0.0005
0.0643272 0.0254 0.0005 0.0643272 0.0254 -0.0005
0.0653557 0.0254 0.0005 0.0653557 0.0254 -0.0005
0.0663923 0.0254 0.0005 0.0663923 0.0254 -0.0005
0.0674368 0.0254 0.0005 0.0674368 0.0254 -0.0005
0.0684895 0.0254 0.0005 0.0684895 0.0254 -0.0005
0.0695504 0.0254 0.0005 0.0695504 0.0254 -0.0005
0.0706195 0.0254 0.0005 0.0706195 0.0254 -0.0005
0.0716969 0.0254 0.0005 0.0716969 0.0254 -0.0005
0.0727828 0.0254 0.0005 0.0727828 0.0254 -0.0005
0.073877 0.0254 0.0005 0.073877 0.0254 -0.0005
0.0749798 0.0254 0.0005 0.0749798 0.0254 -0.0005
0.0760911 0.0254 0.0005 0.0760911 0.0254 -0.0005
0.0772111 0.0254 0.0005 0.0772111 0.0254 -0.0005
0.0783398 0.0254 0.0005 0.0783398 0.0254 -0.0005
0.0794772 0.0254 0.0005 0.0794772 0.0254 -0.0005
0.0806235 0.0254 0.0005 0.0806235 0.0254 -0.0005
0.0817787 0.0254 0.0005 0.0817787 0.0254 -0.0005
0.0829429 0.0254 0.0005 0.0829429 0.0254 -0.0005
0.0841162 0.0254 0.0005 0.0841162 0.0254 -0.0005
0.0852985 0.0254 0.0005 0.0852985 0.0254 -0.0005
0.0864901 0.0254 0.0005 0.0864901 0.0254 -0.0005
0.0876909 0.0254 0.0005 0.0876909 0.0254 -0.0005
0.0889011 0.0254 0.0005 0.0889011 0.0254 -0.0005
0.0901207 0.0254 0.0005 0.0901207 0.0254 -0.0005
0.0913497 0.0254 0.0005 0.0913497 0.0254 -0.0005
0.0925883 0.0254 0.0005 0.0925883 0.0254 -0.0005
0.0938366 0.0254 0.0005 0.0938366 0.0254 -0.0005
0.0950945 0.0254 0.0005 0.0950945 0.0254 -0.0005
0.0963622 0.0254 0.0005 0.0963622 0.0254 -0.0005
0.0976398 0.0254 0.0005 0.0976398 0.0254 -0.0005
0.0989273 0.0254 0.0005 0.0989273 0.0254 -0.0005
0.100225 0.0254 0.0005 0.100225 0.0254 -0.0005
0.101532 0.0254 0.0005 0.101532 0.0254 -0.0005
0.10285 0.0254 0.0005 0.10285 0.0254 -0.0005
0.104178 0.0254 0.0005 0.104178 0.0254 -0.0005
0.105517 0.0254 0.0005 0.105517 0.0254 -0.0005
0.106865 0.0254 0.0005 0.106865 0.0254 -0.0005
0.108225 0.0254 0.0005 0.108225 0.0254 -0.0005
0.109594 0.0254 0.0005 0.109594 0.0254 -0.0005
0.110975 0.0254 0.0005 0.110975 0.0254 -0.0005
0.112366 0.0254 0.0005 0.112366 0.0254 -0.0005
0.113768 0.0254 0.0005 0.113768 0.0254 -0.0005
0.115181 0.0254 0.0005 0.115181 0.0254 -0.0005
0.116605 0.0254 0.0005 0.116605 0.0254 -0.0005
0.11804 0.0254 0.0005 0.11804 0.0254 -0.0005
0.119486 0.0254 0.0005 0.119486 0.0254 -0.0005
0.120943 0.0254 0.0005 0.120943 0.0254 -0.0005
0.122412 0.0254 0.0005 0.122412 0.0254 -0.0005
0.123892 0.0254 0.0005 0.123892 0.0254 -0.0005
0.125384 0.0254 0.0005 0.125384 0.0254 -0.0005
0.126887 0.0254 0.0005 0.126887 0.0254 -0.0005
0.128402 0.0254 0.0005 0.128402 0.0254 -0.0005
0.129928 0.0254 0.0005 0.129928 0.0254 -0.0005
0.131467 0.0254 0.0005 0.131467 0.0254 -0.0005
0.133017 0.0254 0.0005 0.133017 0.0254 -0.0005
0.13458 0.0254 0.0005 0.13458 0.0254 -0.0005
0.136155 0.0254 0.0005 0.136155 0.0254 -0.0005
0.137742 0.0254 0.0005 0.137742 0.0254 -0.0005
0.139341 0.0254 0.0005 0.139341 0.0254 -0.0005
0.140953 0.0254 0.0005 0.140953 0.0254 -0.0005
0.142577 0.0254 0.0005 0.142577 0.0254 -0.0005
0.144214 0.0254 0.0005 0.144214 0.0254 -0.0005
0.145863 0.0254 0.0005 0.145863 0.0254 -0.0005
0.147526 0.0254 0.0005 0.147526 0.0254 -0.0005
0.149201 0.0254 0.0005 0.149201 0.0254 -0.0005
0.15089 0.0254 0.0005 0.15089 0.0254 -0.0005
0.152591 0.0254 0.0005 0.152591 0.0254 -0.0005
0.154306 0.0254 0.0005 0.154306 0.0254 -0.0005
0.156034 0.0254 0.0005 0.156034 0.0254 -0.0005
0.157775 0.0254 0.0005 0.157775 0.0254 -0.0005
0.159531 0.0254 0.0005 0.159531 0.0254 -0.0005
0.161299 0.0254 0.0005 0.161299 0.0254 -0.0005
0.163082 0.0254 0.0005 0.163082 0.0254 -0.0005
0.164878 0.0254 0.0005 0.164878 0.0254 -0.0005
0.166688 0.0254 0.0005 0.166688 0.0254 -0.0005
0.168513 0.0254 0.0005 0.168513 0.0254 -0.0005
0.170351 0.0254 0.0005 0.170351 0.0254 -0.0005
0.172204 0.0254 0.0005 0.172204 0.0254 -0.0005
0.174071 0.0254 0.0005 0.174071 0.0254 -0.0005
0.175953 0.0254 0.0005 0.175953 0.0254 -0.0005
0.177849 0.0254 0.0005 0.177849 0.0254 -0.0005
0.17976 0.0254 0.0005 0.17976 0.0254 -0.0005
0.181686 0.0254 0.0005 0.181686 0.0254 -0.0005
0.183627 0.0254 0.0005 0.183627 0.0254 -0.0005
0.185583 0.0254 0.0005 0.185583 0.0254 -0.0005
0.187555 0.0254 0.0005 0.187555 0.0254 -0.0005
0.189541 0.0254 0.0005 0.189541 0.0254 -0.0005
0.191543 0.0254 0.0005 0.191543 0.0254 -0.0005
0.193561 0.0254 0.0005 0.193561 0.0254 -0.0005
0.195594 0.0254 0.0005 0.195594 0.0254 -0.0005
0.197643 0.0254 0.0005 0.197643 0.0254 -0.0005
0.199708 0.0254 0.0005 0.199708 0.0254 -0.0005
0.201789 0.0254 0.0005 0.201789 0.0254 -0.0005
0.203886 0.0254 0.0005 0.203886 0.0254 -0.0005
0.206 0.0254 0.0005 0.206 0.0254 -0.0005
0.208047 0.0251856 0.0005 0.208047 0.0251856 -0.0005
0.210173 0.0249628 0.0005 0.210173 0.0249628 -0.0005
0.212382 0.0247314 0.0005 0.212382 0.0247314 -0.0005
0.214677 0.024491 0.0005 0.214677 0.024491 -0.0005
0.217061 0.0242412 0.0005 0.217061 0.0242412 -0.0005
0.219538 0.0239817 0.0005 0.219538 0.0239817 -0.0005
0.222112 0.0237121 0.0005 0.222112 0.0237121 -0.0005
0.224785 0.023432 0.0005 0.224785 0.023432 -0.0005
0.227563 0.023141 0.0005 0.227563 0.023141 -0.0005
0.230449 0.0228387 0.0005 0.230449 0.0228387 -0.0005
0.233447 0.0225246 0.0005 0.233447 0.0225246 -0.0005
0.236562 0.0221983 0.0005 0.236562 0.0221983 -0.0005
0.239797 0.0218593 0.0005 0.239797 0.0218593 -0.0005
0.243159 0.0215071 0.0005 0.243159 0.0215071 -0.0005
0.246652 0.0211412 0.0005 0.246652 0.0211412 -0.0005
0.250281 0.0207611 0.0005 0.250281 0.0207611 -0.0005
0.254051 0.0203661 0.0005 0.254051 0.0203661 -0.0005
0.257967 0.0199558 0.0005 0.257967 0.0199558 -0.0005
0.262036 0.0195295 0.0005 0.262036 0.0195295 -0.0005
0.266264 0.0190867 0.0005 0.266264 0.0190867 -0.0005
0.270655 0.0186266 0.0005 0.270655 0.0186266 -0.0005
0.275218 0.0181486 0.0005 0.275218 0.0181486 -0.0005
0.279959 0.017652 0.0005 0.279959 0.017652 -0.0005
0.284883 0.017136 0.0005 0.284883 0.017136 -0.0005
0.29 0.0166 0.0005 0.29 0.0166 -0.0005
        </DataArray>
      </Points>
      <Polys>
        <DataArray type='Int32' Name='connectivity' format='ascii'>
0 1 2 3 3 2
4 5 5 4 6 7
7 6 8 9 9 8
10 11 11 10 12 13
13 12 14 15 15 14
16 17 17 16 18 19
19 18 20 21 21 20
22 23 23 22 24 25
25 24 26 27 27 26
28 29 29 28 30 31
31 30 32 33 33 32
34 35 35 34 36 37
37 36 38 39 39 38
40 41 41 40 42 43
43 42 44 45 45 44
46 47 47 46 48 49
49 48 50 51 51 50
52 53 53 52 54 55
55 54 56 57 57 56
58 59 59 58 60 61
61 60 62 63 63 62
64 65 65 64 66 67
67 66 68 69 69 68
70 71 71 70 72 73
73 72 74 75 75 74
76 77 77 76 78 79
79 78 80 81 81 80
82 83 83 82 84 85
85 84 86 87 87 86
88 89 89 88 90 91
91 90 92 93 93 92
94 95 95 94 96 97
97 96 98 99 99 98
100 101 101 100 102 103
103 102 104 105 105 104
106 107 107 106 108 109
109 108 110 111 111 110
112 113 113 112 114 115
115 114 116 117 117 116
118 119 119 118 120 121
121 120 122 123 123 122
124 125 125 124 126 127
127 126 128 129 129 128
130 131 131 130 132 133
133 132 134 135 135 134
136 137 137 136 138 139
139 138 140 141 141 140
142 143 143 142 144 145
145 144 146 147 147 146
148 149 149 148 150 151
151 150 152 153 153 152
154 155 155 154 156 157
157 156 158 159 159 158
160 161 161 160 162 163
163 162 164 165 165 164
166 167 167 166 168 169
169 168 170 171 171 170
172 173 173 172 174 175
175 174 176 177 177 176
178 179 179 178 180 181
181 180 182 183 183 182
184 185 185 184 186 187
187 186 188 189 189 188
190 191 191 190 192 193
193 192 194 195 195 194
196 197 197 196 198 199
199 198 200 201 201 200
202 203 203 202 204 205
205 204 206 207 207 206
208 209 209 208 210 211
211 210 212 213 213 212
214 215 215 214 216 217
217 216 218 219 219 218
220 221 221 220 222 223
223 222 224 225 225 224
226 227 227 226 228 229
229 228 230 231 231 230
232 233 233 232 234 235
235 234 236 237 237 236
238 239 239 238 240 241
241 240 242 243 243 242
244 245 245 244 246 247
247 246 248 249 249 248
250 251 251 250 252 253
253 252 254 255 255 254
256 257 257 256 258 259
259 258 260 261 261 260
262 263 263 262 264 265
265 264 266 267 267 266
268 269 269 268 270 271
271 270 272 273 273 272
274 275 275 274 276 277
277 276 278 279 279 278
280 281 281 280 282 283
283 282 284 285 285 284
286 287 287 286 288 289
289 288 290 291 291 290
292 293 293 292 294 295
295 294 296 297 297 296
298 299 299 298 300 301
301 300 302 303 303 302
304 305 305 304 306 307
307 306 308 309 309 308
310 311 311 310 312 313
313 312 314 315 315 314
316 317 317 316 318 319
319 318 320 321 321 320
322 323 323 322 324 325
325 324 326 327 327 326
328 329 329 328 330 331
331 330 332 333 333 332
334 335 335 334 336 337
337 336 338 339 339 338
340 341 341 340 342 343
343 342 344 345 345 344
346 347 347 346 348 349
349 348 350 351 351 350
352 353 353 352 354 355
355 354 356 357 357 356
358 359 359 358 360 361
361 360 362 363 363 362
364 365 365 364 366 367
367 366 368 369 369 368
370 371 371 370 372 373
373 372 374 375 375 374
376 377 377 376 378 379
379 378 380 381 381 380
382 383 383 382 384 385
385 384 386 387 387 386
388 389 389 388 390 391
391 390 392 393 393 392
394 395 395 394 396 397
397 396 398 399 399 398
400 401 401 400 402 403
403 402 404 405 405 404
406 407 407 406 408 409
409 408 410 411 411 410
412 413 413 412 414 415
415 414 416 417 417 416
418 419 419 418 420 421
421 420 422 423 423 422
424 425 425 424 426 427
427 426 428 429 429 428
430 431 431 430 432 433
433 432 434 435 435 434
436 437 437 436 438 439
439 438 440 441 441 440
442 443 443 442 444 445
445 444 446 447
        </DataArray>
        <DataArray type='Int32' Name='offsets' format='ascii'>
4 8 12 16 20 24
28 32 36 40 44 48
52 56 60 64 68 72
76 80 84 88 92 96
100 104 108 112 116 120
124 128 132 136 140 144
148 152 156 160 164 168
172 176 180 184 188 192
196 200 204 208 212 216
220 224 228 232 236 240
244 248 252 256 260 264
268 272 276 280 284 288
292 296 300 304 308 312
316 320 324 328 332 336
340 344 348 352 356 360
364 368 372 376 380 384
388 392 396 400 404 408
412 416 420 424 428 432
436 440 444 448 452 456
460 464 468 472 476 480
484 488 492 496 500 504
508 512 516 520 524 528
532 536 540 544 548 552
556 560 564 568 572 576
580 584 588 592 596 600
604 608 612 616 620 624
628 632 636 640 644 648
652 656 660 664 668 672
676 680 684 688 692 696
700 704 708 712 716 720
724 728 732 736 740 744
748 752 756 760 764 768
772 776 780 784 788 792
796 800 804 808 812 816
820 824 828 832 836 840
844 848 852 856 860 864
868 872 876 880 884 888
892
        </DataArray>
      </Polys>
      <CellData>
        <DataArray type='Float32' Name='epsilon' format='ascii'>
632.296 1081.11 1534.74 1880.99 2183.47 2431.77
2631.53 2773.03 2876.15 2932.21 2969.07 2970.17
2963.16 2946.23 2918.32 2885.07 2849.27 2811.95
2781.33 2757.57 2732.96 2707.69 2681.93 2655.82
2629.53 2603.22 2577.01 2551.04 2525.42 2500.25
2475.61 2451.61 2428.27 2405.68 2383.86 2362.88
2342.71 2323.46 2305.04 2287.57 2270.93 2255.27
2240.38 2226.5 2213.32 2201.17 2189.6 2179.11
2170.87 2164.52 2159.74 2156.27 2153.89 2152.43
2151.73 2151.69 2152.18 2153.12 2154.44 2156.08
2157.97 2160.08 2162.35 2164.75 2167.26 2169.82
2172.43 2175.05 2177.67 2180.26 2182.8 2185.28
2187.68 2189.99 2192.2 2194.3 2196.28 2198.13
2199.84 2201.42 2202.85 2204.14 2205.28 2206.27
2207.12 2207.82 2208.37 2208.78 2209.04 2209.16
2209.13 2208.96 2208.64 2208.18 2207.59 2206.85
2205.98 2204.97 2203.82 2202.53 2201.1 2199.52
2197.8 2195.92 2193.88 2191.68 2189.3 2186.75
2184.01 2181.09 2177.95 2174.61 2171.05 2167.27
2163.24 2158.98 2154.46 2149.7 2144.66 2139.37
2133.79 2127.94 2121.8 2115.37 2108.66 2101.66
2094.38 2086.81 2078.94 2070.86 2062.47 2053.93
2045 2035.96 2026.43 2016.97 2007.01 1997.1
1986.65 1976.17 1965.17 1954.04 1942.47 1930.57
1918.24 1905.8 1893.04 1880.24 1867.16 1854.04
1840.67 1827.26 1813.67 1800.02 1786.2 1772.35
1758.38 1744.43 1730.39 1716.42 1702.41 1688.51
1674.66 1660.96 1647.35 1633.89 1620.56 1607.36
1594.3 1581.37 1568.58 1555.92 1543.37 1530.95
1518.62 1506.42 1494.25 1482.19 1470.05 1457.99
1445.71 1433.41 1420.76 1407.93 1394.57 1380.81
1366.28 1351.04 1334.59 1317.06 1297.51 1276.42
1252.14 1224.31 1194.41 1146.07 1115.15 943.413
1087.28 1325.2 1508.64 1618 1706.19 1792.58
1874.9 1954.4 2032.28 2113.84 2198.78 2291.28
2391.12 2502.67 2625.95 2765.74 2923.13 3103.58
3312.48 3549.76 3837.36 4143.36 4591.85 4918.43
5727.82
        </DataArray>
        <DataArray type='Float32' Name='k' format='ascii'>
0.479035 0.684949 0.865145 0.99081 1.09437 1.17584
1.23938 1.28342 1.31504 1.33207 1.34321 1.34355
1.34143 1.33632 1.32786 1.31776 1.30684 1.2954
1.28555 1.27737 1.26891 1.26023 1.25137 1.24238
1.23331 1.22421 1.21512 1.20609 1.19714 1.18831
1.17963 1.17113 1.16282 1.15473 1.14687 1.13926
1.13189 1.12481 1.11798 1.11144 1.10516 1.09919
1.09346 1.08804 1.08285 1.07798 1.07329 1.06895
1.06534 1.06234 1.05985 1.05778 1.05606 1.05464
1.05345 1.05247 1.05166 1.05099 1.05043 1.04997
1.04958 1.04925 1.04896 1.0487 1.04847 1.04824
1.04802 1.0478 1.04756 1.04729 1.04701 1.04669
1.04634 1.04594 1.04551 1.04502 1.04449 1.04391
1.04327 1.04257 1.04182 1.04102 1.04015 1.03923
1.03825 1.03721 1.03612 1.03497 1.03377 1.0325
1.03119 1.02981 1.02838 1.0269 1.02536 1.02377
1.02212 1.02042 1.01867 1.01687 1.015 1.01309
1.01111 1.00908 1.00699 1.00484 1.00263 1.00035
0.998001 0.995585 0.993096 0.990535 0.987894 0.985178
0.982376 0.979496 0.976524 0.973471 0.970323 0.967089
0.963757 0.960336 0.956817 0.953203 0.949495 0.94569
0.941793 0.937796 0.933706 0.929536 0.925271 0.920949
0.916506 0.912007 0.907375 0.902728 0.897957 0.89315
0.888222 0.883226 0.878117 0.872918 0.867609 0.86218
0.856616 0.851012 0.845303 0.839572 0.833753 0.827911
0.821988 0.816043 0.810038 0.804005 0.797916 0.791805
0.785651 0.779493 0.773304 0.767125 0.760924 0.754748
0.74858 0.742445 0.736332 0.730252 0.724203 0.718183
0.712196 0.706241 0.700317 0.694424 0.688556 0.682718
0.676898 0.671107 0.665317 0.659549 0.653754 0.64797
0.642116 0.636249 0.630271 0.624232 0.618033 0.611709
0.60515 0.598379 0.591247 0.583791 0.575737 0.567219
0.557752 0.54722 0.536059 0.519315 0.507778 0.452263
0.492924 0.559197 0.60597 0.630878 0.649256 0.666337
0.68157 0.69534 0.707954 0.720631 0.733232 0.74661
0.760576 0.775904 0.792391 0.810776 0.830943 0.853576
0.879179 0.907234 0.940739 0.973738 1.02435 1.05216
1.1411
        </DataArray>
        <DataArray type='Float32' Name='nut' format='ascii'>
0 0 0 0 3.47733e-07 6.45861e-07
8.70217e-07 1.02184e-06 1.12888e-06 1.18592e-06 1.223e-06 1.2241e-06
1.21708e-06 1.20006e-06 1.17186e-06 1.13801e-06 1.10125e-06 1.06257e-06
1.02478e-06 9.88203e-07 9.50538e-07 9.11971e-07 8.72661e-07 8.32771e-07
7.92457e-07 7.51889e-07 7.11205e-07 6.70558e-07 6.30058e-07 5.89843e-07
5.49994e-07 5.10635e-07 4.71817e-07 4.33652e-07 3.96159e-07 3.59448e-07
3.23497e-07 2.88427e-07 2.54166e-07 2.2086e-07 1.88373e-07 1.56897e-07
1.26211e-07 9.65828e-08 6.76698e-08 3.9865e-08 1.26432e-08 0
0 0 0 0 0 0
0 0 0 0 0 0
0 0 0 0 0 0
0 0 0 0 0 0
0 0 0 0 0 0
0 0 0 0 0 0
0 0 0 0 0 0
0 0 0 0 0 0
0 0 0 0 0 0
0 0 0 0 0 0
0 0 0 0 0 0
0 0 0 0 0 0
0 0 0 0 0 0
0 0 0 0 0 0
0 0 0 0 0 0
0 0 0 0 0 0
0 0 0 0 0 0
0 0 0 0 0 0
0 0 0 0 0 0
0 0 0 0 0 0
0 0 0 0 0 0
0 0 0 0 0 0
0 0 0 0 0 0
0 0 0 0 0 0
0 0 0 0 0 0
0 0 0 0 0 0
0 0 0 0 0 0
0 0 0 0 0 0
0 0 0 0 0 0
0
        </DataArray>
        <DataArray type='Float32' Name='p' format='ascii'>
-2.19585 -3.96495 -4.97828 -5.25984 -5.38637 -5.52915
-5.65915 -5.75991 -5.84224 -5.91551 -5.98181 -6.04101
-6.09368 -6.14073 -6.18288 -6.22033 -6.25319 -6.27994
-6.30261 -6.32366 -6.34971 -6.37569 -6.399 -6.42026
-6.44052 -6.4601 -6.47895 -6.49706 -6.51451 -6.53137
-6.54769 -6.56349 -6.57881 -6.59366 -6.60808 -6.62209
-6.6357 -6.64893 -6.6618 -6.67432 -6.6865 -6.69835
-6.70986 -6.72104 -6.73187 -6.74232 -6.75234 -6.76203
-6.77179 -6.78183 -6.79205 -6.80229 -6.81247 -6.82257
-6.83258 -6.84245 -6.85217 -6.86172 -6.87107 -6.88021
-6.88911 -6.89776 -6.90613 -6.91419 -6.92193 -6.92932
-6.93631 -6.94289 -6.94902 -6.95467 -6.95979 -6.96434
-6.96828 -6.97156 -6.97413 -6.97595 -6.97695 -6.97708
-6.97627 -6.97446 -6.97159 -6.96759 -6.96237 -6.95587
-6.94801 -6.93871 -6.92787 -6.91542 -6.90127 -6.88533
-6.8675 -6.84769 -6.8258 -6.80172 -6.77536 -6.7466
-6.71536 -6.68151 -6.64495 -6.60557 -6.56327 -6.51792
-6.46943 -6.41769 -6.36259 -6.30402 -6.24187 -6.17604
-6.10645 -6.03297 -5.95552 -5.87399 -5.7883 -5.69837
-5.6041 -5.50541 -5.40227 -5.29457 -5.18225 -5.06526
-4.94355 -4.81707 -4.68579 -4.54969 -4.40874 -4.26292
-4.11223 -3.9567 -3.79631 -3.63106 -3.46103 -3.2862
-3.10671 -2.92258 -2.73389 -2.54062 -2.34295 -2.14093
-1.93474 -1.72445 -1.51023 -1.29217 -1.07049 -0.845323
-0.616832 -0.385088 -0.150252 0.08751 0.328016 0.571065
0.816484 1.06409 1.3137 1.56508 1.8181 2.07253
2.32821 2.58493 2.84256 3.10087 3.35976 3.61899
3.87851 4.13805 4.39759 4.65688 4.91591 5.17441
5.43249 5.68984 5.94667 6.20265 6.45803 6.71252
6.96647 7.2196 7.47234 7.72444 7.97644 8.22811
8.48012 8.73229 8.98546 9.23955 9.49556 9.75352
10.0147 10.2793 10.5487 10.8238 11.1063 11.3974
11.7003 12.0156 12.355 12.7031 13.1434 13.4821
14.4365 13.7101 13.1804 12.9797 12.7476 12.4592
12.1782 11.909 11.6328 11.3482 11.0481 10.7334
10.3907 10.0218 9.60948 9.15675 8.6422 8.06731
7.40979 6.66054 5.81588 4.79865 3.76636 2.18573
1.36234
        </DataArray>
        <DataArray type='Float32' Name='U' NumberOfComponents='3' format='ascii'>
0 0 0 0 0 0
0 0 0 0 0 0
0 0 0 0 0 0
0 0 0 0 0 0
0 0 0 0 0 0
0 0 0 0 0 0
0 0 0 0 0 0
0 0 0 0 0 0
0 0 0 0 0 0
0 0 0 0 0 0
0 0 0 0 0 0
0 0 0 0 0 0
0 0 0 0 0 0
0 0 0 0 0 0
0 0 0 0 0 0
0 0 0 0 0 0
0 0 0 0 0 0
0 0 0 0 0 0
0 0 0 0 0 0
0 0 0 0 0 0
0 0 0 0 0 0
0 0 0 0 0 0
0 0 0 0 0 0
0 0 0 0 0 0
0 0 0 0 0 0
0 0 0 0 0 0
0 0 0 0 0 0
0 0 0 0 0 0
0 0 0 0 0 0
0 0 0 0 0 0
0 0 0 0 0 0
0 0 0 0 0 0
0 0 0 0 0 0
0 0 0 0 0 0
0 0 0 0 0 0
0 0 0 0 0 0
0 0 0 0 0 0
0 0 0 0 0 0
0 0 0 0 0 0
0 0 0 0 0 0
0 0 0 0 0 0
0 0 0 0 0 0
0 0 0 0 0 0
0 0 0 0 0 0
0 0 0 0 0 0
0 0 0 0 0 0
0 0 0 0 0 0
0 0 0 0 0 0
0 0 0 0 0 0
0 0 0 0 0 0
0 0 0 0 0 0
0 0 0 0 0 0
0 0 0 0 0 0
0 0 0 0 0 0
0 0 0 0 0 0
0 0 0 0 0 0
0 0 0 0 0 0
0 0 0 0 0 0
0 0 0 0 0 0
0 0 0 0 0 0
0 0 0 0 0 0
0 0 0 0 0 0
0 0 0 0 0 0
0 0 0 0 0 0
0 0 0 0 0 0
0 0 0 0 0 0
0 0 0 0 0 0
0 0 0 0 0 0
0 0 0 0 0 0
0 0 0 0 0 0
0 0 0 0 0 0
0 0 0 0 0 0
0 0 0 0 0 0
0 0 0 0 0 0
0 0 0 0 0 0
0 0 0 0 0 0
0 0 0 0 0 0
0 0 0 0 0 0
0 0 0 0 0 0
0 0 0 0 0 0
0 0 0 0 0 0
0 0 0 0 0 0
0 0 0 0 0 0
0 0 0 0 0 0
0 0 0 0 0 0
0 0 0 0 0 0
0 0 0 0 0 0
0 0 0 0 0 0
0 0 0 0 0 0
0 0 0 0 0 0
0 0 0 0 0 0
0 0 0 0 0 0
0 0 0 0 0 0
0 0 0 0 0 0
0 0 0 0 0 0
0 0 0 0 0 0
0 0 0 0 0 0
0 0 0 0 0 0
0 0 0 0 0 0
0 0 0 0 0 0
0 0 0 0 0 0
0 0 0 0 0 0
0 0 0 0 0 0
0 0 0 0 0 0
0 0 0 0 0 0
0 0 0 0 0 0
0 0 0 0 0 0
0 0 0 0 0 0
0 0 0 0 0 0
0 0 0 0 0 0
0 0 0 0 0 0
0 0 0
        </DataArray>
      </CellData>
      <PointData>
        <DataArray type='Float32' Name='epsilon' format='ascii'>
632.296 632.296 859.934 859.934 1311.11 1311.11
1710.23 1710.23 2034.24 2034.24 2309.23 2309.23
2532.9 2532.9 2703.14 2703.14 2825.2 2825.2
2904.5 2904.5 2950.84 2950.84 2969.63 2969.63
2966.63 2966.63 2954.61 2954.61 2932.15 2932.15
2901.55 2901.55 2867.02 2867.02 2830.46 2830.46
2795.72 2795.72 2769.46 2769.46 2745.28 2745.28
2720.34 2720.34 2694.82 2694.82 2668.89 2668.89
2642.69 2642.69 2616.39 2616.39 2590.13 2590.13
2564.04 2564.04 2538.24 2538.24 2512.85 2512.85
2487.94 2487.94 2463.62 2463.62 2439.95 2439.95
2416.99 2416.99 2394.78 2394.78 2373.38 2373.38
2352.81 2352.81 2333.1 2333.1 2314.26 2314.26
2296.31 2296.31 2279.26 2279.26 2263.11 2263.11
2247.83 2247.83 2233.45 2233.45 2219.92 2219.92
2207.25 2207.25 2195.39 2195.39 2184.36 2184.36
2174.99 2174.99 2167.7 2167.7 2162.13 2162.13
2158.01 2158.01 2155.08 2155.08 2153.16 2153.16
2152.08 2152.08 2151.71 2151.71 2151.93 2151.93
2152.65 2152.65 2153.78 2153.78 2155.26 2155.26
2157.02 2157.02 2159.02 2159.02 2161.21 2161.21
2163.55 2163.55 2166 2166 2168.54 2168.54
2171.12 2171.12 2173.74 2173.74 2176.36 2176.36
2178.96 2178.96 2181.53 2181.53 2184.04 2184.04
2186.48 2186.48 2188.83 2188.83 2191.09 2191.09
2193.25 2193.25 2195.29 2195.29 2197.2 2197.2
2198.98 2198.98 2200.63 2200.63 2202.13 2202.13
2203.49 2203.49 2204.71 2204.71 2205.77 2205.77
2206.69 2206.69 2207.47 2207.47 2208.09 2208.09
2208.57 2208.57 2208.91 2208.91 2209.1 2209.1
2209.15 2209.15 2209.05 2209.05 2208.8 2208.8
2208.41 2208.41 2207.89 2207.89 2207.22 2207.22
2206.42 2206.42 2205.48 2205.48 2204.4 2204.4
2203.18 2203.18 2201.82 2201.82 2200.31 2200.31
2198.66 2198.66 2196.86 2196.86 2194.9 2194.9
2192.78 2192.78 2190.49 2190.49 2188.03 2188.03
2185.38 2185.38 2182.55 2182.55 2179.52 2179.52
2176.28 2176.28 2172.83 2172.83 2169.16 2169.16
2165.26 2165.26 2161.11 2161.11 2156.72 2156.72
2152.09 2152.09 2147.19 2147.19 2142.02 2142.02
2136.59 2136.59 2130.87 2130.87 2124.88 2124.88
2118.59 2118.59 2112.02 2112.02 2105.17 2105.17
2098.03 2098.03 2090.6 2090.6 2082.88 2082.88
2074.91 2074.91 2066.67 2066.67 2058.21 2058.21
2049.48 2049.48 2040.49 2040.49 2031.21 2031.21
2021.71 2021.71 2012 2012 2002.07 2002.07
1991.89 1991.89 1981.42 1981.42 1970.68 1970.68
1959.62 1959.62 1948.27 1948.27 1936.54 1936.54
1924.42 1924.42 1912.04 1912.04 1899.44 1899.44
1886.66 1886.66 1873.72 1873.72 1860.62 1860.62
1847.37 1847.37 1833.98 1833.98 1820.48 1820.48
1806.86 1806.86 1793.13 1793.13 1779.29 1779.29
1765.38 1765.38 1751.42 1751.42 1737.43 1737.43
1723.42 1723.42 1709.43 1709.43 1695.48 1695.48
1681.6 1681.6 1667.83 1667.83 1654.17 1654.17
1640.64 1640.64 1627.24 1627.24 1613.98 1613.98
1600.85 1600.85 1587.85 1587.85 1574.99 1574.99
1562.27 1562.27 1549.66 1549.66 1537.18 1537.18
1524.8 1524.8 1512.54 1512.54 1500.35 1500.35
1488.24 1488.24 1476.14 1476.14 1464.04 1464.04
1451.87 1451.87 1439.58 1439.58 1427.1 1427.1
1414.36 1414.36 1401.27 1401.27 1387.71 1387.71
1373.57 1373.57 1358.68 1358.68 1342.84 1342.84
1325.85 1325.85 1307.32 1307.32 1287 1287
1264.32 1264.32 1238.27 1238.27 1209.41 1209.41
1170.32 1170.32 1130.66 1130.66 1029.55 1029.55
1016.13 1016.13 1204.39 1204.39 1415.47 1415.47
1562.45 1562.45 1661.38 1661.38 1748.68 1748.68
1833.06 1833.06 1913.99 1913.99 1992.68 1992.68
2072.37 2072.37 2155.58 2155.58 2244.23 2244.23
2340.33 2340.33 2445.92 2445.92 2563.22 2563.22
2694.61 2694.61 2843.03 2843.03 3011.74 3011.74
3206.15 3206.15 3428.98 3428.98 3690.95 3690.95
3987.58 3987.58 4363.51 4363.51 4752.15 4752.15
5315.69 5315.69 5727.82 5727.82
        </DataArray>
        <DataArray type='Float32' Name='k' format='ascii'>
0.479035 0.479035 0.583474 0.583474 0.776313 0.776313
0.928837 0.928837 1.04328 1.04328 1.13563 1.13563
1.20801 1.20801 1.26167 1.26167 1.29942 1.29942
1.32365 1.32365 1.3377 1.3377 1.34338 1.34338
1.34248 1.34248 1.33885 1.33885 1.33205 1.33205
1.32277 1.32277 1.31225 1.31225 1.30107 1.30107
1.29018 1.29018 1.28146 1.28146 1.27314 1.27314
1.26457 1.26457 1.2558 1.2558 1.24688 1.24688
1.23785 1.23785 1.22876 1.22876 1.21967 1.21967
1.21061 1.21061 1.20162 1.20162 1.19273 1.19273
1.18397 1.18397 1.17538 1.17538 1.16698 1.16698
1.15878 1.15878 1.1508 1.1508 1.14307 1.14307
1.13558 1.13558 1.12835 1.12835 1.1214 1.1214
1.11471 1.11471 1.1083 1.1083 1.10218 1.10218
1.09633 1.09633 1.09075 1.09075 1.08545 1.08545
1.08042 1.08042 1.07564 1.07564 1.07112 1.07112
1.06715 1.06715 1.06384 1.06384 1.0611 1.0611
1.05882 1.05882 1.05692 1.05692 1.05535 1.05535
1.05405 1.05405 1.05296 1.05296 1.05207 1.05207
1.05133 1.05133 1.05071 1.05071 1.0502 1.0502
1.04978 1.04978 1.04942 1.04942 1.04911 1.04911
1.04883 1.04883 1.04859 1.04859 1.04836 1.04836
1.04813 1.04813 1.04791 1.04791 1.04768 1.04768
1.04743 1.04743 1.04715 1.04715 1.04685 1.04685
1.04652 1.04652 1.04614 1.04614 1.04573 1.04573
1.04527 1.04527 1.04476 1.04476 1.0442 1.0442
1.04359 1.04359 1.04292 1.04292 1.0422 1.0422
1.04142 1.04142 1.04059 1.04059 1.03969 1.03969
1.03874 1.03874 1.03773 1.03773 1.03667 1.03667
1.03555 1.03555 1.03437 1.03437 1.03314 1.03314
1.03185 1.03185 1.0305 1.0305 1.0291 1.0291
1.02764 1.02764 1.02613 1.02613 1.02457 1.02457
1.02295 1.02295 1.02127 1.02127 1.01955 1.01955
1.01777 1.01777 1.01594 1.01594 1.01405 1.01405
1.0121 1.0121 1.0101 1.0101 1.00804 1.00804
1.00592 1.00592 1.00374 1.00374 1.00149 1.00149
0.999178 0.999178 0.996795 0.996795 0.994343 0.994343
0.991818 0.991818 0.989217 0.989217 0.986539 0.986539
0.98378 0.98378 0.980939 0.980939 0.978013 0.978013
0.975001 0.975001 0.9719 0.9719 0.96871 0.96871
0.965427 0.965427 0.96205 0.96205 0.95858 0.95858
0.955014 0.955014 0.951353 0.951353 0.947597 0.947597
0.943746 0.943746 0.939799 0.939799 0.935756 0.935756
0.931626 0.931626 0.927409 0.927409 0.923115 0.923115