/*--------------------------------*- C++ -*----------------------------------*\
| =========                 |                                                 |
| \\      /  F ield         | OpenFOAM: The Open Source CFD Toolbox           |
|  \\    /   O peration     | Version:  v1906                                 |
|   \\  /    A nd           | Web:      www.OpenFOAM.com                      |
|    \\/     M anipulation  |                                                 |
\*---------------------------------------------------------------------------*/
FoamFile
{
    version     2.0;
    format      ascii;
    class       volScalarField;
    location    "283";
    object      k;
}
// * * * * * * * * * * * * * * * * * * * * * * * * * * * * * * * * * * * * * //

dimensions      [0 2 -2 0 0 0 0];


internalField   nonuniform List<scalar> 
12225
(
0.571355
0.987723
1.28114
1.45557
1.54166
1.57741
1.57632
1.56599
1.54775
1.52388
1.50049
1.47801
1.45794
1.43899
1.42336
1.40763
1.39698
1.38227
0.436368
0.496703
0.521953
0.534904
0.542886
0.547414
0.550241
0.552227
0.555993
0.559484
0.565524
0.571182
0.579496
0.586964
0.596699
0.605399
0.615175
0.625769
0.388596
0.417503
0.424145
0.421544
0.415
0.404966
0.393798
0.382813
0.371927
0.362429
0.353238
0.346114
0.338974
0.334344
0.329115
0.326698
0.323073
0.322353
0.377462
0.38452
0.388006
0.387472
0.385271
0.381193
0.375693
0.369564
0.363115
0.356562
0.350107
0.343801
0.337819
0.33206
0.326778
0.321676
0.317178
0.312705
0.37451
0.375403
0.37637
0.375959
0.37474
0.372522
0.369618
0.366137
0.362485
0.358469
0.354557
0.350368
0.346521
0.342382
0.338793
0.334818
0.331605
0.327844
0.373826
0.372561
0.371993
0.371088
0.36991
0.368266
0.36634
0.364031
0.361641
0.358966
0.356373
0.353535
0.350915
0.348046
0.34552
0.3427
0.340346
0.337625
0.373789
0.371731
0.37023
0.368833
0.367464
0.36594
0.364344
0.362551
0.360734
0.358749
0.356812
0.35473
0.352769
0.350664
0.348747
0.346671
0.34485
0.342829
0.373822
0.371564
0.36962
0.36786
0.36625
0.364663
0.363121
0.361521
0.359944
0.358297
0.356694
0.355025
0.353428
0.351768
0.350212
0.348587
0.347101
0.345522
0.373834
0.371554
0.369457
0.36751
0.365722
0.364025
0.362428
0.360861
0.359354
0.357851
0.3564
0.354942
0.35354
0.352129
0.350784
0.349424
0.348147
0.346841
0.373833
0.37156
0.369425
0.36741
0.365529
0.363752
0.362086
0.360492
0.35898
0.357515
0.356115
0.354747
0.353437
0.35215
0.350918
0.349705
0.348549
0.347404
0.37383
0.371561
0.369417
0.367384
0.365468
0.363652
0.361942
0.360316
0.358778
0.357309
0.355911
0.354569
0.353288
0.352053
0.350871
0.349728
0.348634
0.347573
0.373828
0.371559
0.369412
0.367375
0.365448
0.363619
0.361889
0.360247
0.35869
0.357209
0.355802
0.354459
0.35318
0.351957
0.350789
0.349669
0.348598
0.34757
0.373827
0.371557
0.369407
0.367369
0.365437
0.363603
0.361865
0.360213
0.358646
0.357156
0.355739
0.35439
0.353107
0.351883
0.350716
0.349601
0.348536
0.34752
0.373827
0.371555
0.369403
0.367362
0.365428
0.363591
0.361848
0.360192
0.358619
0.357123
0.3557
0.354345
0.353056
0.351828
0.350656
0.34954
0.348474
0.347458
0.373826
0.371553
0.369399
0.367357
0.36542
0.363581
0.361835
0.360176
0.358599
0.3571
0.355673
0.354315
0.353021
0.351788
0.350613
0.349493
0.348424
0.347405
0.373826
0.371552
0.369396
0.367352
0.365413
0.363572
0.361824
0.360163
0.358584
0.357081
0.355652
0.35429
0.352994
0.351758
0.35058
0.349457
0.348385
0.347363
0.373825
0.371551
0.369394
0.367349
0.365408
0.363566
0.361816
0.360152
0.358571
0.357067
0.355635
0.354271
0.352972
0.351735
0.350555
0.349429
0.348355
0.347331
0.373825
0.371551
0.369393
0.367347
0.365405
0.363561
0.36181
0.360145
0.358562
0.357056
0.355623
0.354258
0.352957
0.351718
0.350536
0.349409
0.348334
0.347308
0.373825
0.371551
0.369393
0.367347
0.365404
0.36356
0.361808
0.360143
0.358559
0.357052
0.355618
0.354252
0.35295
0.35171
0.350527
0.349399
0.348323
0.347296
0.373825
0.371551
0.369394
0.367348
0.365406
0.363562
0.361811
0.360146
0.358562
0.357056
0.355622
0.354256
0.352955
0.351715
0.350532
0.349405
0.348329
0.347302
0.373826
0.371552
0.369396
0.367351
0.36541
0.363567
0.361816
0.360152
0.35857
0.357065
0.355633
0.354268
0.352969
0.35173
0.35055
0.349423
0.348349
0.347323
0.373826
0.371553
0.369398
0.367355
0.365416
0.363575
0.361828
0.360168
0.358591
0.357091
0.355664
0.354306
0.353012
0.351779
0.350602
0.34948
0.348408
0.347383
0.373826
0.371555
0.369401
0.367363
0.365432
0.363605
0.361875
0.360237
0.358681
0.357203
0.355794
0.354451
0.353167
0.351939
0.350762
0.349635
0.348552
0.347513
0.373827
0.371555
0.369413
0.367418
0.365544
0.363793
0.362138
0.360572
0.359071
0.357632
0.35624
0.354896
0.353589
0.352323
0.35109
0.349894
0.348728
0.347601
0.373825
0.371565
0.369582
0.367846
0.366223
0.364711
0.363219
0.361754
0.360266
0.358787
0.357288
0.3558
0.354306
0.352833
0.351361
0.349924
0.348495
0.34711
0.373813
0.371945
0.370923
0.369984
0.368911
0.367769
0.366327
0.364737
0.362934
0.361062
0.35906
0.357054
0.354971
0.352925
0.350845
0.348825
0.346792
0.344839
0.374386
0.375097
0.377363
0.377613
0.37706
0.375839
0.373494
0.370865
0.367802
0.364686
0.361328
0.358027
0.354602
0.351291
0.347923
0.3447
0.341473
0.338414
0.379653
0.393541
0.402719
0.402409
0.400144
0.396078
0.390672
0.385167
0.379133
0.373302
0.367221
0.361475
0.355719
0.350305
0.345128
0.340198
0.335726
0.331324
0.405811
0.438978
0.451181
0.455812
0.459105
0.46226
0.46497
0.467227
0.46922
0.47084
0.472486
0.473922
0.47554
0.477066
0.479202
0.480825
0.483663
0.485376
0.479035
0.684949
0.865145
0.99081
1.09437
1.17584
1.23938
1.28342
1.31504
1.33207
1.34321
1.34355
1.34143
1.33632
1.32786
1.31776
1.30684
1.2954
0.00230085
0.00383033
0.00552504
0.00712139
0.0085172
0.00971018
0.0107278
0.0115999
0.0123546
0.0130565
0.0137534
0.0144521
0.015173
0.0159328
0.0167399
0.0175943
0.0184929
0.0194381
0.0204565
0.0216328
0.0231019
0.0248668
0.0268606
0.0290645
0.0314912
0.0341642
0.0371094
0.0403478
0.0438919
0.0477369
0.0518595
0.0562485
0.0608854
0.0657427
0.0708012
0.07604
0.0814438
0.0869979
0.0926915
0.0985166
0.104469
0.110549
0.116762
0.12312
0.129645
0.13637
0.143345
0.150643
0.158096
0.165698
0.173451
0.181361
0.189426
0.197651
0.206038
0.214587
0.223301
0.232181
0.241227
0.25044
0.25982
0.269367
0.279079
0.288956
0.298994
0.309193
0.319548
0.330058
0.340716
0.35152
0.362463
0.373541
0.384747
0.396075
0.407517
0.419067
0.430715
0.442453
0.454273
0.466164
0.478117
0.490122
0.502166
0.514241
0.526333
0.538432
0.550524
0.562598
0.574638
0.586634
0.598569
0.610428
0.622195
0.633852
0.64538
0.656758
0.667961
0.678967
0.689752
0.700297
0.710601
0.720708
0.730649
0.740324
0.749773
0.75897
0.767913
0.776586
0.784979
0.793082
0.800883
0.808373
0.815541
0.822378
0.828875
0.835023
0.840814
0.846242
0.851298
0.855978
0.860275
0.864183
0.867698
0.870816
0.873533
0.875848
0.87776
0.879267
0.880369
0.881065
0.881346
0.881245
0.880814
0.879895
0.87854
0.876757
0.874675
0.872274
0.869419
0.866218
0.862648
0.858725
0.854458
0.849857
0.844933
0.839693
0.834147
0.828306
0.822181
0.815785
0.809129
0.802226
0.795088
0.78773
0.780164
0.772404
0.764464
0.756357
0.748098
0.739701
0.731183
0.72256
0.713856
0.705118
0.696518
0.68961
0.685453
0.681655
0.677852
0.674014
0.670139
0.666228
0.662279
0.658277
0.654189
0.649937
0.645367
0.640009
0.632977
0.607881
0.00568836
0.00885492
0.0125681
0.0155817
0.0181236
0.02037
0.0224332
0.0243922
0.0263065
0.0282223
0.030202
0.0323146
0.034603
0.0370874
0.0397706
0.0426457
0.0457041
0.0489433
0.0523709
0.0560025
0.0598517
0.0639322
0.0682586
0.0728448
0.077711
0.0828817
0.0883825
0.0942363
0.100459
0.107054
0.11401
0.121325
0.128992
0.137008
0.14537
0.154056
0.163057
0.172367
0.181982
0.191898
0.202114
0.212628
0.223438
0.234546
0.245951
0.257655
0.269655
0.281949
0.294523
0.307384
0.320538
0.333989
0.347742
0.361802
0.376173
0.39086
0.405865
0.421195
0.436851
0.452837
0.469155
0.485808
0.502796
0.52012
0.53778
0.555775
0.574104
0.592764
0.611751
0.631063
0.650692
0.670635
0.690882
0.711428
0.732263
0.753376
0.774758
0.796397
0.81828
0.840393
0.862722
0.885251
0.907965
0.930845
0.953873
0.977031
1.0003
1.02365
1.04708
1.07055
1.09404
1.11752
1.14097
1.16437
1.18768
1.21087
1.2339
1.25674
1.27934
1.30165
1.32361
1.34513
1.36622
1.38702
1.40748
1.4276
1.44735
1.46671
1.48566
1.50417
1.52221
1.53978
1.55684
1.57337
1.58935
1.60477
1.6196
1.63383
1.64743
1.6604
1.67272
1.68436
1.69533
1.70559
1.71516
1.724
1.73213
1.73952
1.74618
1.75209
1.75727
1.76171
1.76541
1.76837
1.77047
1.77168
1.77226
1.77229
1.77144
1.76988
1.7676
1.76459
1.76089
1.75649
1.75141
1.74567
1.73928
1.73226
1.72462
1.7164
1.70759
1.69823
1.68834
1.67794
1.66705
1.65569
1.64389
1.63168
1.61907
1.6061
1.5928
1.57918
1.56528
1.55115
1.53687
1.52277
1.50904
1.49528
1.4814
1.46743
1.45339
1.4393
1.42518
1.41102
1.3968
1.38251
1.36794
1.35302
1.33627
1.30074
0.0095287
0.0144665
0.0195054
0.0234369
0.0267658
0.0297731
0.0326207
0.0354195
0.038255
0.0411988
0.044312
0.047643
0.0512241
0.0550707
0.0591851
0.0635607
0.068189
0.0730634
0.0781825
0.0835517
0.0891839
0.0950916
0.101287
0.107787
0.11461
0.121777
0.129311
0.137227
0.145539
0.154263
0.163415
0.173005
0.183036
0.19351
0.204421
0.215757
0.227512
0.239679
0.252253
0.265227
0.278596
0.292354
0.306496
0.321016
0.335911
0.351177
0.36681
0.382807
0.399167
0.415894
0.432991
0.450463
0.468313
0.486546
0.505166
0.524177
0.543582
0.563384
0.583586
0.604191
0.6252
0.646614
0.668433
0.690658
0.713286
0.736315
0.759743
0.783566
0.807778
0.832374
0.857347
0.882688
0.90839
0.934441
0.96083
0.987546
1.01457
1.0419
1.06951
1.09738
1.1255
1.15385
1.18241
1.21116
1.24007
1.26912
1.29829
1.32755
1.35687
1.38624
1.41561
1.44496
1.47425
1.50347
1.53256
1.56151
1.59027
1.6188
1.64708
1.67507
1.70274
1.73007
1.75703
1.78362
1.8098
1.83553
1.8608
1.88557
1.9098
1.93346
1.95654
1.97899
2.00079
2.02191
2.04232
2.06201
2.08094
2.09909
2.11644
2.13296
2.14865
2.16347
2.17741
2.19046
2.20259
2.21381
2.22409
2.23343
2.24183
2.24927
2.25576
2.26128
2.26585
2.26944
2.27202
2.27348
2.27407
2.27384
2.27261
2.27043
2.26731
2.26328
2.25834
2.25252
2.24583
2.23829
2.22992
2.22074
2.21078
2.20006
2.1886
2.17644
2.16359
2.15009
2.13597
2.12125
2.10598
2.09017
2.07387
2.0571
2.0399
2.0223
2.00435
1.9861
1.96763
1.94915
1.93075
1.91228
1.89369
1.875
1.85623
1.83743
1.81862
1.79982
1.78107
1.76236
1.74366
1.72496
1.70488
1.67348
0.0128554
0.0203537
0.0266689
0.0314453
0.0354754
0.0391378
0.0426411
0.0461223
0.0496834
0.0534047
0.0573489
0.0615613
0.0660696
0.0708852
0.076007
0.0814262
0.0871321
0.0931163
0.0993755
0.105913
0.112736
0.119859
0.1273
0.135082
0.143232
0.151778
0.160745
0.17016
0.180043
0.190411
0.201275
0.212641
0.224507
0.236869
0.249716
0.263045
0.276852
0.291129
0.305869
0.321062
0.336701
0.35278
0.369292
0.386232
0.403596
0.421381
0.439585
0.458206
0.477246
0.496709
0.516598
0.536918
0.557673
0.578868
0.600508
0.622596
0.645138
0.668135
0.691592
0.715512
0.739895
0.764745
0.790061
0.815843
0.842089
0.868799
0.895968
0.923593
0.951669
0.980189
1.00915
1.03853
1.06833
1.09854
1.12915
1.16014
1.19149
1.22319
1.25522
1.28756
1.3202
1.35311
1.38626
1.41963
1.45321
1.48695
1.52083
1.55482
1.58889
1.62302
1.65716
1.69128
1.72534
1.75932
1.79318
1.82687
1.86037
1.89363
1.92663
1.95932
1.99167
2.02365
2.05522
2.08635
2.117
2.14713
2.17669
2.20567
2.23401
2.26168
2.28864
2.31487
2.34032
2.36496
2.38877
2.41171
2.43375
2.45487
2.47503
2.49422
2.5124
2.52957
2.54569
2.56075
2.57473
2.58762
2.5994
2.61007
2.61962
2.62804
2.63533
2.64149
2.64651
2.65037
2.65306
2.65445
2.65485
2.65419
2.65238
2.64946
2.64545
2.64035
2.63421
2.62702
2.61882
2.60963
2.59946
2.58836
2.57634
2.56344
2.54968
2.5351
2.51972
2.50359
2.48674
2.46919
2.451
2.4322
2.41281
2.3929
2.37248
2.35162
2.33035
2.30873
2.28685
2.26484
2.24278
2.22062
2.19834
2.17595
2.15351
2.13105
2.10862
2.08627
2.06407
2.04208
2.02035
1.99896
1.97672
1.94745
0.0154874
0.0261861
0.0338366
0.0394946
0.0442394
0.0485389
0.0526471
0.0567265
0.0608942
0.0652381
0.0698241
0.0746973
0.0798841
0.0853946
0.0912273
0.0973737
0.103824
0.110572
0.117617
0.124966
0.132633
0.140637
0.149005
0.157763
0.166943
0.176574
0.186681
0.197288
0.208412
0.220065
0.232254
0.244981
0.258244
0.272039
0.286361
0.301204
0.316563
0.33243
0.348796
0.365656
0.383001
0.400827
0.419129
0.437902
0.457145
0.476855
0.497033
0.51768
0.5388
0.560396
0.582474
0.605038
0.628093
0.651646
0.675701
0.700263
0.725339
0.750931
0.777045
0.803683
0.83085
0.858547
0.886775
0.915535
0.944827
0.974649
1.005
1.03587
1.06727
1.09918
1.13159
1.1645
1.19789
1.23176
1.26609
1.30087
1.33608
1.3717
1.40771
1.44409
1.48081
1.51786
1.55521
1.59282
1.63067
1.66873
1.70697
1.74535
1.78383
1.82239
1.86098
1.89956
1.9381
1.97655
2.01488
2.05304
2.09099
2.1287
2.16611
2.2032
2.2399
2.27619
2.31201
2.34732
2.38208
2.41624
2.44976
2.48259
2.5147
2.54603
2.57656
2.60623
2.63501
2.66287
2.68975
2.71564
2.74049
2.76428
2.78697
2.80854
2.82896
2.8482
2.86624
2.88306
2.89865
2.91298
2.92604
2.93783
2.94833
2.95754
2.96546
2.97207
2.97739
2.9814
2.98405
2.98527
2.98537
2.9842
2.98174
2.97803
2.97308
2.9669
2.95953
2.95099
2.9413
2.93049
2.91859
2.90562
2.89163
2.87665
2.8607
2.84383
2.82607
2.80746
2.78805
2.76787
2.74696
2.72537
2.70314
2.68031
2.65694
2.63306
2.60873
2.58402
2.55901
2.53379
2.50844
2.48295
2.45734
2.43163
2.40587
2.38013
2.35446
2.32895
2.30369
2.2788
2.2544
2.23061
2.2064
2.17747
0.0175165
0.0316918
0.0407463
0.0473149
0.0527786
0.0576953
0.0623625
0.0669665
0.0716381
0.0764738
0.0815439
0.0868968
0.0925616
0.0985517
0.104869
0.111512
0.118474
0.125757
0.133365
0.14131
0.149613
0.158297
0.167389
0.17692
0.186917
0.197406
0.208411
0.219949
0.232034
0.244674
0.257875
0.271636
0.285959
0.300838
0.316271
0.332254
0.34878
0.365843
0.38344
0.401565
0.420214
0.439384
0.459072
0.479278
0.5
0.521241
0.543002
0.565286
0.588097
0.611441
0.635323
0.65975
0.684727
0.710262
0.736361
0.763031
0.790278
0.818107
0.846526
0.875537
0.905146
0.935357
0.966171
0.997591
1.02962
1.06225
1.09549
1.12933
1.16377
1.19879
1.23441
1.2706
1.30735
1.34466
1.3825
1.42087
1.45974
1.49909
1.5389
1.57916
1.61982
1.66087
1.70227
1.744
1.78602
1.82829
1.87078
1.91345
1.95626
1.99917
2.04213
2.08511
2.12805
2.17091
2.21365
2.25622
2.29856
2.34064
2.38239
2.42378
2.46475
2.50524
2.5452
2.58459
2.62336
2.66145
2.69882
2.73541
2.77117
2.80607
2.84004
2.87305
2.90505
2.936
2.96585
2.99457
3.02212
3.04846
3.07356
3.09739
3.11992
3.14112
3.16097
3.17944
3.19651
3.21217
3.2264
3.2392
3.25054
3.26043
3.26887
3.27584
3.28136
3.28541
3.28793
3.28894
3.28863
3.28689
3.28373
3.27916
3.27321
3.26591
3.25729
3.24736
3.23616
3.22372
3.21007
3.19525
3.1793
3.16225
3.14414
3.12502
3.10493
3.0839
3.06199
3.03924
3.0157
2.99141
2.96642
2.94079
2.91456
2.88779
2.86053
2.83285
2.80482
2.77654
2.74807
2.71943
2.69067
2.66181
2.63292
2.60407
2.57535
2.54685
2.5187
2.49107
2.46411
2.43796
2.41171
2.38196
0.0190488
0.0367621
0.0471709
0.0546284
0.0607866
0.0662847
0.0714588
0.076517
0.0816033
0.0868226
0.0922522
0.0979465
0.103941
0.110255
0.1169
0.12388
0.131198
0.138863
0.146884
0.155279
0.164068
0.173277
0.182933
0.193062
0.203688
0.214835
0.226519
0.238757
0.251559
0.264931
0.278879
0.293404
0.308507
0.324186
0.34044
0.357265
0.374661
0.392623
0.411151
0.430242
0.449894
0.470109
0.490886
0.512227
0.534134
0.556611
0.579661
0.603289
0.627503
0.652307
0.67771
0.703719
0.730342
0.757588
0.785465
0.813981
0.843144
0.872962
0.903442
0.934591
0.966415
0.998919
1.03211
1.06598
1.10055
1.13581
1.17176
1.2084
1.24573
1.28373
1.32241
1.36175
1.40175
1.44238
1.48364
1.52551
1.56796
1.61098
1.65454
1.69861
1.74317
1.78819
1.83362
1.87944
1.9256
1.97208
2.01881
2.06577
2.11291
2.16018
2.20752
2.2549
2.30226
2.34954
2.39669
2.44367
2.4904
2.53684
2.58293
2.62861
2.67382
2.7185
2.76259
2.80604
2.84879
2.89079
2.93196
2.97227
3.01166
3.05007
3.08745
3.12374
3.1589
3.19289
3.22565
3.25714
3.28732
3.31615
3.34359
3.36961
3.39417
3.41725
3.43882
3.45885
3.47733
3.49423
3.50955
3.52326
3.53536
3.54584
3.55471
3.56197
3.5676
3.57162
3.57393
3.57466
3.57387
3.57149
3.56755
3.56207
3.55508
3.5466
3.53667
3.52531
3.51257
3.49847
3.48305
3.46636
3.44844
3.42933
3.40907
3.3877
3.36529
3.34187
3.31749
3.29221
3.26607
3.23914
3.21145
3.18307
3.15406
3.12446
3.09434
3.06376
3.03281
3.00155
2.97006
2.93839
2.90658
2.87468
2.84277
2.81093
2.77926
2.74788
2.71694
2.68663
2.65714
2.62859
2.60014
2.5688
0.0203111
0.0412793
0.0529302
0.0612103
0.0680059
0.0740288
0.0796494
0.0850945
0.0905197
0.0960389
0.101736
0.107674
0.113896
0.12043
0.127296
0.134507
0.142075
0.150012
0.158335
0.167062
0.176213
0.185814
0.195887
0.206456
0.217542
0.229163
0.241335
0.25407
0.267378
0.281265
0.295738
0.310799
0.32645
0.342694
0.359531
0.376962
0.394988
0.413609
0.432826
0.452642
0.473058
0.494077
0.515703
0.537939
0.560792
0.584268
0.608371
0.633112
0.658496
0.684533
0.711232
0.738604
0.766659
0.795406
0.824856
0.85502
0.885908
0.91753
0.949895
0.983012
1.01689
1.05153
1.08695
1.12315
1.16013
1.1979
1.23645
1.27579
1.31591
1.35681
1.39848
1.44092
1.4841
1.52802
1.57265
1.61799
1.66401
1.71068
1.75797
1.80586
1.85432
1.9033
1.95278
2.0027
2.05303
2.10373
2.15474
2.20602
2.25751
2.30915
2.36091
2.41271
2.4645
2.51622
2.56781
2.6192
2.67033
2.72114
2.77157
2.82153
2.87098
2.91983
2.96803
3.01552
3.06223
3.10809
3.15305
3.19704
3.24
3.28188
3.32261
3.36213
3.4004
3.43736
3.47295
3.50714
3.53988
3.57111
3.60081
3.62894
3.65545
3.68033
3.70353
3.72504
3.74483
3.76288
3.77919
3.79373
3.80649
3.81748
3.8267
3.83414
3.8398
3.8437
3.84575
3.84611
3.84476
3.84168
3.8369
3.83044
3.82235
3.81264
3.80136
3.78853
3.77421
3.75842
3.74122
3.72264
3.70274
3.68155
3.65914
3.63554
3.61082
3.58503
3.55822
3.53044
3.50175
3.47222
3.44188
3.41082
3.37907
3.34671
3.3138
3.2804
3.24659
3.21244
3.17804
3.14342
3.10867
3.07383
3.03899
3.00425
2.96972
2.93554
2.90187
2.86891
2.83687
2.80587
2.77511
2.74201
0.022826
0.0454012
0.0580032
0.0669498
0.074274
0.0807376
0.0867324
0.0924979
0.0981979
0.103953
0.109854
0.115969
0.122351
0.129036
0.136052
0.14342
0.151159
0.159286
0.167818
0.176776
0.18618
0.196051
0.206409
0.217276
0.228668
0.240602
0.253091
0.266147
0.27978
0.293998
0.308807
0.324213
0.34022
0.356834
0.374059
0.391898
0.410356
0.429437
0.449145
0.469487
0.490467
0.512092
0.534368
0.557303
0.580906
0.605185
0.630151
0.655812
0.68218
0.709267
0.737084
0.765643
0.794959
0.825043
0.855909
0.887571
0.920039
0.953328
0.987449
1.02241
1.05823
1.09491
1.13246
1.17089
1.21021
1.25041
1.29151
1.33349
1.37637
1.42012
1.46476
1.51026
1.55661
1.6038
1.65181
1.70062
1.7502
1.80053
1.85158
1.90331
1.95568
2.00865
2.06219
2.11625
2.17077
2.22571
2.28102
2.33663
2.39248
2.44853
2.5047
2.56093
2.61716
2.67331
2.72931
2.78511
2.84062
2.89577
2.95048
3.0047
3.05833
3.11131
3.16357
3.21503
3.26563
3.31529
3.36395
3.41154
3.45799
3.50324
3.54722
3.58988
3.63114
3.67097
3.70929
3.74607
3.78124
3.81477
3.84661
3.87673
3.90507
3.93162
3.95634
3.9792
4.00019
4.01928
4.03645
4.05171
4.06503
4.07641
4.08587
4.09339
4.09899
4.10267
4.1044
4.10428
4.10229
4.09843
4.09275
4.08526
4.076
4.06502
4.05234
4.03802
4.02208
4.00459
3.98558
3.96511
3.94323
3.91998
3.89543
3.86963
3.84264
3.81451
3.7853
3.75508
3.7239
3.69182
3.65891
3.62523
3.59084
3.5558
3.52017
3.48404
3.44746
3.41053
3.37331
3.33586
3.29827
3.26059
3.22293
3.18539
3.14809
3.11118
3.07484
3.03929
3.0047
2.97121
2.93806
2.90311
0.0257419
0.0489466
0.0622646
0.0717327
0.0794763
0.0862937
0.0925902
0.0986138
0.104533
0.110474
0.116531
0.122778
0.129275
0.136063
0.14318
0.15065
0.158498
0.166743
0.175407
0.184507
0.194063
0.204095
0.21462
0.225656
0.237219
0.249325
0.261986
0.275214
0.289019
0.303411
0.318399
0.333991
0.350194
0.367017
0.384467
0.402551
0.421277
0.440654
0.460689
0.481392
0.502772
0.52484
0.547605
0.571079
0.595274
0.620201
0.645873
0.672305
0.69951
0.727503
0.756299
0.785915
0.816365
0.847667
0.879836
0.912888
0.946839
0.981705
1.0175
1.05423
1.09193
1.13058
1.17022
1.21084
1.25246
1.29507
1.33869
1.38331
1.42892
1.47554
1.52314
1.57171
1.62125
1.67174
1.72314
1.77545
1.82862
1.88264
1.93746
1.99304
2.04935
2.10634
2.16396
2.22215
2.28088
2.34006
2.39965
2.45959
2.51979
2.58021
2.64076
2.70138
2.76199
2.82251
2.88287
2.94299
3.00279
3.06218
3.1211
3.17945
3.23716
3.29414
3.35033
3.40563
3.45998
3.51329
3.5655
3.61653
3.66631
3.71477
3.76184
3.80746
3.85155
3.89407
3.93494
3.97413
4.01157
4.04722
4.08102
4.11295
4.14295
4.17101
4.19707
4.22113
4.24315
4.26312
4.28101
4.29683
4.31057
4.32222
4.33178
4.33927
4.34469
4.34805
4.34935
4.34867
4.34596
4.34124
4.33458
4.32599
4.31553
4.30322
4.28912
4.27327
4.25571
4.2365
4.21569
4.19334
4.16949
4.14422
4.11757
4.0896
4.06039
4.02999
3.99846
3.96587
3.93229
3.89776
3.86237
3.82617
3.78924
3.75163
3.71341
3.67466
3.63544
3.59584
3.55593
3.51579
3.47549
3.43511
3.39476
3.35453
3.31458
3.27504
3.23611
3.19801
3.16091
3.12493
3.08935
3.05236
0.0284451
0.0517822
0.0656309
0.0754969
0.0835621
0.0906523
0.0971825
0.103406
0.109496
0.115579
0.121754
0.128099
0.134676
0.141533
0.148709
0.156236
0.164141
0.172444
0.181167
0.19033
0.199952
0.210049
0.220639
0.231738
0.243361
0.255522
0.268234
0.28151
0.29536
0.309798
0.324834
0.34048
0.356747
0.373645
0.391186
0.409381
0.428243
0.447783
0.468014
0.488949
0.510602
0.532985
0.556114
0.580004
0.604669
0.630127
0.656396
0.683492
0.711433
0.740236
0.769922
0.800509
0.832018
0.864468
0.897879
0.93227
0.967659
1.00406
1.0415
1.07999
1.11954
1.16017
1.20189
1.24472
1.28865
1.3337
1.37986
1.42715
1.47555
1.52506
1.57567
1.62737
1.68013
1.73395
1.78879
1.84463
1.90143
1.95916
2.01778
2.07724
2.13749
2.19849
2.26018
2.3225
2.38539
2.44878
2.5126
2.57679
2.64127
2.70597
2.7708
2.83569
2.90056
2.96531
3.02987
3.09415
3.15807
3.22153
3.28444
3.34673
3.40831
3.46908
3.52896
3.58787
3.64572
3.70245
3.75796
3.81218
3.86503
3.91644
3.96633
4.01464
4.0613
4.10625
4.14942
4.19075
4.2302
4.26771
4.30324
4.33673
4.36816
4.39748
4.42468
4.4497
4.47255
4.49319
4.51162
4.52782
4.5418
4.55354
4.56306
4.57036
4.57546
4.57838
4.57914
4.5778
4.57427
4.56862
4.56091
4.55117
4.53945
4.52579
4.51024
4.49285
4.47367
4.45276
4.43017
4.40597
4.38021
4.35296
4.32428
4.29423
4.26289
4.23031
4.19656
4.16172
4.12584
4.089
4.05126
4.01269
3.97335
3.93332
3.89266
3.85145
3.80975
3.76765
3.72523
3.68255
3.63971
3.5968
3.5539
3.51115
3.46868
3.42664
3.38524
3.34467
3.30512
3.2667
3.22873
3.18964
0.0308583
0.0539067
0.0681091
0.078256
0.0865499
0.0938353
0.100534
0.106902
0.113115
0.119301
0.125559
0.13197
0.138597
0.14549
0.152692
0.160236
0.168151
0.176462
0.185188
0.194351
0.203966
0.214051
0.224621
0.235692
0.247278
0.259394
0.272053
0.28527
0.29906
0.313437
0.328416
0.34401
0.360235
0.377105
0.394637
0.412844
0.431745
0.451355
0.471691
0.49277
0.514611
0.53723
0.560647
0.584878
0.609946
0.635872
0.662678
0.690386
0.719016
0.748592
0.779138
0.810678
0.843234
0.876832
0.911492
0.947238
0.98409
1.02207
1.06119
1.10148
1.14296
1.18563
1.2295
1.27461
1.32094
1.3685
1.4173
1.46734
1.51861
1.57111
1.62481
1.6797
1.73577
1.79299
1.85132
1.91073
1.9712
2.03266
2.09508
2.15841
2.22259
2.28757
2.35327
2.41964
2.4866
2.55409
2.62202
2.69032
2.75891
2.8277
2.89661
2.96555
3.03444
3.10317
3.17167
3.23983
3.30756
3.37478
3.44138
3.50728
3.57237
3.63658
3.69981
3.76196
3.82296
3.88272
3.94116
3.99819
4.05373
4.10772
4.16006
4.2107
4.25955
4.30656
4.35166
4.39479
4.4359
4.47493
4.51184
4.54659
4.57912
4.60942
4.63744
4.66317
4.68657
4.70763
4.72635
4.74271
4.7567
4.76834
4.77763
4.78458
4.78921
4.79155
4.79163
4.78954
4.78508
4.77842
4.76959
4.75865
4.74564
4.73061
4.71361
4.69469
4.67392
4.65134
4.62703
4.60104
4.57345
4.54431
4.5137
4.48168
4.44833
4.41371
4.37789
4.34094
4.30294
4.26394
4.22403
4.18327
4.14172
4.09947
4.05656
4.01309
3.96912
3.92472
3.87999
3.835
3.78983
3.74457
3.69934
3.65425
3.60945
3.56508
3.52135
3.47846
3.43657
3.3958
3.35552
3.3144
0.0329616
0.0553652
0.0697572
0.0800753
0.0885085
0.095913
0.102715
0.109172
0.115461
0.121709
0.128015
0.134461
0.141109
0.148012
0.155211
0.162742
0.170632
0.178906
0.187585
0.196687
0.206231
0.216233
0.22671
0.237678
0.249151
0.261143
0.273669
0.286748
0.300398
0.314636
0.329481
0.344951
0.361065
0.377842
0.395303
0.413467
0.432355
0.451989
0.472391
0.493583
0.515587
0.538426
0.56212
0.586689
0.612157
0.638554
0.665909
0.694248
0.7236
0.753994
0.785457
0.818018
0.851704
0.886541
0.922555
0.95977
0.99821
1.0379
1.07885
1.12109
1.16464
1.2095
1.2557
1.30324
1.35214
1.40238
1.45398
1.50693
1.56121
1.61682
1.67374
1.73195
1.79141
1.8521
1.91399
1.97702
2.04116
2.10635
2.17255
2.23969
2.30771
2.37655
2.44614
2.51639
2.58724
2.6586
2.7304
2.80255
2.87495
2.94752
3.02017
3.0928
3.16532
3.23763
3.30964
3.38124
3.45234
3.52285
3.59265
3.66167
3.72979
3.79692
3.86298
3.92787
3.99149
4.05377
4.11461
4.17393
4.23165
4.28769
4.34198
4.39444
4.44499
4.49358
4.54013
4.5846
4.62691
4.66703
4.7049
4.74049
4.77374
4.80463
4.83312
4.8592
4.88283
4.90401
4.92273
4.93897
4.95274
4.96404
4.97288
4.97929
4.98328
4.98488
4.9842
4.9812
4.97572
4.96796
4.95798
4.9458
4.93148
4.91508
4.89664
4.87624
4.85392
4.82975
4.8038
4.77613
4.74681
4.71592
4.68352
4.64969
4.6145
4.57801
4.54031
4.50146
4.46154
4.42062
4.37876
4.33604
4.29252
4.24828
4.20339
4.15791
4.11192
4.06549
4.01871
3.97165
3.92441
3.87708
3.82975
3.78256
3.73565
3.68917
3.64331
3.59827
3.5542
3.51124
3.46879
3.42579
0.0347611
0.0562265
0.0706582
0.0810451
0.0895328
0.0969828
0.103824
0.110314
0.11663
0.122901
0.129224
0.135677
0.142323
0.149211
0.156379
0.163862
0.171688
0.179882
0.188466
0.197458
0.206879
0.216744
0.227073
0.237884
0.249199
0.261041
0.27342
0.28635
0.299852
0.313946
0.328654
0.343997
0.359998
0.376682
0.394073
0.412196
0.431077
0.45074
0.471217
0.492536
0.514724
0.537808
0.561814
0.586773
0.612719
0.639688
0.667709
0.696815
0.72704
0.758418
0.790982
0.824765
0.859798
0.896107
0.93372
0.972661
1.01295
1.05462
1.09768
1.14216
1.18807
1.23542
1.28422
1.33448
1.3862
1.43939
1.49403
1.55011
1.60761
1.66653
1.72682
1.78846
1.85142
1.91566
1.98112
2.04777
2.11555
2.1844
2.25425
2.32505
2.39672
2.46919
2.54238
2.61622
2.69061
2.76547
2.84072
2.91625
2.99199
3.06783
3.14368
3.21944
3.29501
3.37029
3.44518
3.51958
3.59339
3.66651
3.73884
3.81028
3.88073
3.9501
4.01828
4.08519
4.15074
4.21483
4.27739
4.33832
4.39754
4.45498
4.51055
4.56419
4.61581
4.66537
4.71278
4.758
4.80097
4.84163
4.87994
4.91587
4.94936
4.98039
5.00892
5.03494
5.05843
5.07937
5.09775
5.11356
5.12682
5.13753
5.1457
5.15135
5.15452
5.15523
5.15369
5.14961
5.14303
5.13413
5.12295
5.10952
5.09391
5.07616
5.05634
5.03452
5.01074
4.98509
4.95763
4.92842
4.89755
4.86508
4.83109
4.79565
4.75884
4.72073
4.68139
4.6409
4.59933
4.55675
4.51323
4.46885
4.42366
4.37774
4.33116
4.28398
4.23628
4.18814
4.13962
4.09082
4.04182
3.9927
3.94358
3.89459
3.84584
3.79751
3.74977
3.70281
3.65679
3.61184
3.56743
3.52274
0.0362624
0.0565377
0.0708754
0.0812442
0.0897138
0.0971435
0.103966
0.110441
0.116742
0.122996
0.129299
0.135728
0.142341
0.149192
0.156314
0.163741
0.171498
0.17961
0.188098
0.196983
0.206283
0.216018
0.226205
0.236864
0.248011
0.25966
0.271832
0.284556
0.297859
0.311767
0.326309
0.341513
0.357408
0.374027
0.3914
0.409558
0.428534
0.448362
0.469072
0.4907
0.513288
0.536861
0.561445
0.587063
0.613753
0.641567
0.670549
0.700738
0.732174
0.764894
0.798939
0.834355
0.871163
0.909389
0.94906
0.990198
1.03282
1.07695
1.1226
1.16978
1.21852
1.2688
1.32064
1.37404
1.42898
1.48546
1.54346
1.60295
1.66392
1.72633
1.79015
1.85533
1.92182
1.98959
2.05857
2.12871
2.19995
2.27221
2.34544
2.41955
2.49447
2.57013
2.64643
2.72329
2.80063
2.87835
2.95637
3.03459
3.11291
3.19124
3.26948
3.34753
3.42529
3.50266
3.57955
3.65584
3.73144
3.80626
3.88018
3.95311
4.02496
4.09563
4.16503
4.23305
4.29961
4.36463
4.42802
4.48969
4.54957
4.60757
4.66362
4.71764
4.76957
4.81935
4.8669
4.91218
4.95513
4.9957
5.03385
5.06953
5.10271
5.13336
5.16144
5.18695
5.20986
5.23016
5.24784
5.26289
5.27534
5.28518
5.29244
5.29712
5.29927
5.299
5.29644
5.29116
5.28345
5.27337
5.26098
5.24632
5.22945
5.21043
5.18933
5.1662
5.14111
5.11414
5.08534
5.0548
5.02259
4.98879
4.95346
4.91668
4.87854
4.8391
4.79843
4.75662
4.71373
4.66984
4.62501
4.57932
4.53282
4.48559
4.43769
4.38919
4.34016
4.29068
4.24081
4.19063
4.14023
4.0897
4.03915
3.98868
3.93844
3.88858
3.83927
3.79068
3.74297
3.6963
3.65018
3.60409
0.0375882
0.0565021
0.0706859
0.0809765
0.0893723
0.0967326
0.103491
0.109906
0.116153
0.122357
0.128611
0.134988
0.141544
0.148322
0.155359
0.162685
0.170324
0.178299
0.186632
0.195348
0.204467
0.214011
0.224001
0.234461
0.245416
0.256892
0.268921
0.281529
0.294746
0.308603
0.323134
0.338373
0.354358
0.371129
0.388733
0.407208
0.426587
0.446909
0.468209
0.490518
0.513844
0.538246
0.563791
0.590546
0.618565
0.64788
0.678532
0.710561
0.744005
0.7789
0.815277
0.853155
0.892572
0.93356
0.976152
1.02036
1.06617
1.11361
1.16268
1.21337
1.26569
1.31964
1.37519
1.43233
1.49105
1.55131
1.61308
1.67633
1.74101
1.80709
1.87452
1.94323
2.01318
2.08431
2.15656
2.22985
2.30413
2.37931
2.45534
2.53211
2.60957
2.68763
2.7662
2.8452
2.92454
3.00413
3.08388
3.1637
3.24349
3.32317
3.40263
3.48179
3.56053
3.63878
3.71642
3.79337
3.86953
3.94479
4.01908
4.09228
4.16431
4.23508
4.30449
4.37245
4.43888
4.50369
4.56681
4.62814
4.68761
4.74515
4.80068
4.85413
4.90543
4.95451
5.00134
5.04585
5.08798
5.1277
5.16495
5.1997
5.23192
5.26157
5.28863
5.31309
5.33492
5.35412
5.37067
5.38459
5.39587
5.40454
5.41059
5.41406
5.415
5.41368
5.40982
5.4033
5.39437
5.38309
5.36948
5.35362
5.33556
5.31536
5.29308
5.26878
5.24255
5.21444
5.18453
5.15289
5.1196
5.08472
5.04835
5.01054
4.97139
4.93095
4.88931
4.84654
4.80271
4.75788
4.71213
4.66552
4.61812
4.56998
4.52118
4.47177
4.42183
4.37141
4.3206
4.26945
4.21806
4.16652
4.11491
4.06336
4.01199
3.96094
3.91039
3.8605
3.81142
3.76332
3.71576
3.66857
0.0387915
0.0562821
0.0701551
0.0802574
0.088486
0.0956919
0.10231
0.108598
0.114732
0.120832
0.126988
0.133268
0.139723
0.146394
0.153317
0.160523
0.168039
0.175897
0.184117
0.192722
0.201736
0.211187
0.221103
0.231513
0.242449
0.253942
0.266028
0.278748
0.292149
0.30627
0.321147
0.336824
0.353343