/*--------------------------------*- C++ -*----------------------------------*\
| =========                 |                                                 |
| \\      /  F ield         | OpenFOAM: The Open Source CFD Toolbox           |
|  \\    /   O peration     | Version:  v1906                                 |
|   \\  /    A nd           | Web:      www.OpenFOAM.com                      |
|    \\/     M anipulation  |                                                 |
\*---------------------------------------------------------------------------*/
FoamFile
{
    version     2.0;
    format      ascii;
    class       volScalarField;
    location    "283";
    object      nut;
}
// * * * * * * * * * * * * * * * * * * * * * * * * * * * * * * * * * * * * * //

dimensions      [0 2 -1 0 0 0 0];


internalField   nonuniform List<scalar> 
12225
(
2.70507e-05
3.5584e-05
4.05203e-05
4.31919e-05
4.44508e-05
4.4963e-05
4.49759e-05
4.47472e-05
4.45657e-05
4.4201e-05
4.38553e-05
4.35241e-05
4.32273e-05
4.29454e-05
4.27115e-05
4.24753e-05
4.23129e-05
4.20929e-05
0.000216419
8.45158e-05
5.58945e-05
4.40579e-05
3.83784e-05
3.53504e-05
3.38603e-05
3.30682e-05
3.28555e-05
3.28779e-05
3.32151e-05
3.36056e-05
3.42283e-05
3.48019e-05
3.558e-05
3.62458e-05
3.70677e-05
3.77729e-05
0.000573249
0.000311639
0.000194369
0.000142164
0.000113216
9.44931e-05
8.20293e-05
7.3312e-05
6.68001e-05
6.19624e-05
5.80406e-05
5.51128e-05
5.25323e-05
5.07068e-05
4.89221e-05
4.77686e-05
4.66653e-05
4.53125e-05
0.000751694
0.00062491
0.000451569
0.000351002
0.000289062
0.000246568
0.0002167
0.000194295
0.000177765
0.000164289
0.000154046
0.000145064
0.000138196
0.000131731
0.000126864
0.000121935
0.000118614
0.000113447
0.000825684
0.000787937
0.000687197
0.0005916
0.000517093
0.000458117
0.000413492
0.000377228
0.000349675
0.000325961
0.000307903
0.000291296
0.000278924
0.000266592
0.000257868
0.00024827
0.00024194
0.000233881
0.000847344
0.000838162
0.000802523
0.000753211
0.000699336
0.000648238
0.000604837
0.000565863
0.000534208
0.000505358
0.000482495
0.000460719
0.000444085
0.000427081
0.000414953
0.000401186
0.000392281
0.000380471
0.00085136
0.000849321
0.000839117
0.000823757
0.000798276
0.000768412
0.000739174
0.000709549
0.000683359
0.000657721
0.000636208
0.000614795
0.000597705
0.000579786
0.00056653
0.000551253
0.000541058
0.000527242
0.000851688
0.000851471
0.000849544
0.000844613
0.000835855
0.000824557
0.000810184
0.000793464
0.000777244
0.000760012
0.00074456
0.000728288
0.000714566
0.000699764
0.00068817
0.000674789
0.000665259
0.000652444
0.000851749
0.000851443
0.000851043
0.000849885
0.000847535
0.000843618
0.000838594
0.00083127
0.000823649
0.000814989
0.000806297
0.00079655
0.000787794
0.000778067
0.000769841
0.000760525
0.000752948
0.000743828
0.000851786
0.000851366
0.000851069
0.000850609
0.000850033
0.000848808
0.000847331
0.000844857
0.000841997
0.000838303
0.000834501
0.000829862
0.000825421
0.000820271
0.000815565
0.0008103
0.000805521
0.000799737
0.000851794
0.000851356
0.000851021
0.000850624
0.000850325
0.000849824
0.000849338
0.000848517
0.000847604
0.00084626
0.000844872
0.000843008
0.0008412
0.000838881
0.000836817
0.000834103
0.000832038
0.000828841
0.000851792
0.000851359
0.000851001
0.000850611
0.000850306
0.000849938
0.000849631
0.00084921
0.000848815
0.000848233
0.000847676
0.000846875
0.000846137
0.000845092
0.000844212
0.000842915
0.000841974
0.000840423
0.000851787
0.000851362
0.000850989
0.000850608
0.00085028
0.000849936
0.000849644
0.000849319
0.00084904
0.000848697
0.000848398
0.000848001
0.000847658
0.000847179
0.000846786
0.00084621
0.000845771
0.0008451
0.000851783
0.000851364
0.00085098
0.000850605
0.000850263
0.000849925
0.000849622
0.000849315
0.000849043
0.000848758
0.000848506
0.000848232
0.00084799
0.000847714
0.000847472
0.000847185
0.000846936
0.000846635
0.000851781
0.000851364
0.000850974
0.0008506
0.000850251
0.000849916
0.000849602
0.0008493
0.000849018
0.000848744
0.000848488
0.000848238
0.000848004
0.000847773
0.000847556
0.00084734
0.000847136
0.000846932
0.00085178
0.000851363
0.00085097
0.000850596
0.000850242
0.000849906
0.000849588
0.000849285
0.000848998
0.000848724
0.000848463
0.000848213
0.000847976
0.000847748
0.000847531
0.000847322
0.000847123
0.000846931
0.000851779
0.000851362
0.000850967
0.000850592
0.000850236
0.000849899
0.000849578
0.000849273
0.000848984
0.000848707
0.000848444
0.000848192
0.000847952
0.000847722
0.000847502
0.000847292
0.00084709
0.000846898
0.000851779
0.000851362
0.000850965
0.000850589
0.000850233
0.000849894
0.000849572
0.000849265
0.000848974
0.000848695
0.00084843
0.000848177
0.000847934
0.000847703
0.000847481
0.000847269
0.000847066
0.000846871
0.000851779
0.000851362
0.000850965
0.000850589
0.000850232
0.000849892
0.00084957
0.000849262
0.00084897
0.000848691
0.000848424
0.00084817
0.000847927
0.000847694
0.000847471
0.000847258
0.000847054
0.000846858
0.000851779
0.000851362
0.000850966
0.000850591
0.000850234
0.000849895
0.000849573
0.000849266
0.000848973
0.000848695
0.000848428
0.000848174
0.00084793
0.000847697
0.000847473
0.000847259
0.000847052
0.000846855
0.000851779
0.000851364
0.000850968
0.000850595
0.000850238
0.000849902
0.000849578
0.000849274
0.000848979
0.0008487
0.000848427
0.000848168
0.00084791
0.000847667
0.00084742
0.000847187
0.000846947
0.000846723
0.000851776
0.000851369
0.000850969
0.000850603
0.000850243
0.00084991
0.000849573
0.000849254
0.000848916
0.000848587
0.000848223
0.000847865
0.000847456
0.00084706
0.000846596
0.00084616
0.000845637
0.00084517
0.000851766
0.000851388
0.000850969
0.000850624
0.000850209
0.000849789
0.000849234
0.000848616
0.000847803
0.000846896
0.000845768
0.00084456
0.000843125
0.000841663
0.000839961
0.000838329
0.000836386
0.000834699
0.000851746
0.000851484
0.00085091
0.000850388
0.000849138
0.000847445
0.000844951
0.000841942
0.000838073
0.000833848
0.00082896
0.00082393
0.000818449
0.000813
0.000807317
0.000801595
0.000795913
0.000790789
0.000851902
0.000851484
0.000848989
0.000845043
0.000837097
0.00082746
0.000815895
0.000802854
0.00078838
0.00077437
0.000759663
0.000746077
0.000732118
0.000719683
0.00070682
0.000695839
0.000684087
0.000674695
0.000852286
0.000845091
0.000826114
0.00080337
0.000769312
0.000735477
0.000700809
0.000669707
0.000639499
0.000613594
0.000588613
0.000567745
0.000547316
0.000530659
0.000513866
0.00050061
0.000486568
0.000476067
0.000832326
0.000795026
0.000710426
0.000628093
0.000558113
0.000503168
0.000455763
0.000418871
0.000386625
0.000361594
0.000338764
0.000321228
0.000304415
0.000291772
0.000278912
0.000269549
0.00025937
0.000252305
0.000733649
0.00054378
0.000397994
0.000313132
0.000257946
0.000219673
0.000190514
0.000169567
0.000152553
0.000139992
0.000129095
0.000121017
0.000113528
0.000108076
0.000102634
9.88117e-05
9.46879e-05
9.19152e-05
0.000325677
0.000164837
0.000111413
8.60789e-05
7.08262e-05
6.13549e-05
5.50186e-05
5.08857e-05
4.79533e-05
4.60099e-05
4.45906e-05
4.36882e-05
4.30394e-05
4.2695e-05
4.24553e-05
4.24393e-05
4.24359e-05
4.26225e-05
3.2663e-05
3.90563e-05
4.3892e-05
4.69717e-05
4.93653e-05
5.11698e-05
5.25342e-05
5.34594e-05
5.4114e-05
5.44634e-05
5.46906e-05
5.46974e-05
5.46543e-05
5.455e-05
5.43772e-05
5.41699e-05
5.3945e-05
5.37084e-05
2.8279e-06
7.79368e-06
9.35883e-06
1.06239e-05
1.16166e-05
1.24012e-05
1.30322e-05
1.35487e-05
1.39793e-05
1.43643e-05
1.47367e-05
1.51003e-05
1.54657e-05
1.58413e-05
1.62307e-05
1.66329e-05
1.70454e-05
1.74677e-05
1.79087e-05
1.83987e-05
1.89916e-05
1.96888e-05
2.04519e-05
2.12642e-05
2.21238e-05
2.30328e-05
2.39938e-05
2.50076e-05
2.60719e-05
2.71803e-05
2.83198e-05
2.94838e-05
3.06647e-05
3.18535e-05
3.30446e-05
3.42328e-05
3.54148e-05
3.65879e-05
3.77505e-05
3.89017e-05
4.00414e-05
4.11706e-05
4.22907e-05
4.34047e-05
4.45161e-05
4.56307e-05
4.67558e-05
4.79021e-05
4.90465e-05
5.01824e-05
5.13132e-05
5.24387e-05
5.35596e-05
5.46763e-05
5.57893e-05
5.6899e-05
5.80054e-05
5.9109e-05
6.02099e-05
6.1308e-05
6.24035e-05
6.34964e-05
6.45864e-05
6.56736e-05
6.67576e-05
6.78384e-05
6.89156e-05
6.99889e-05
7.1058e-05
7.21224e-05
7.31818e-05
7.42358e-05
7.52839e-05
7.63255e-05
7.73602e-05
7.83875e-05
7.94067e-05
8.04175e-05
8.1419e-05
8.24109e-05
8.33925e-05
8.43632e-05
8.53224e-05
8.62695e-05
8.72038e-05
8.81249e-05
8.90319e-05
8.99245e-05
9.08017e-05
9.16631e-05
9.25079e-05
9.33353e-05
9.41447e-05
9.49351e-05
9.57055e-05
9.64549e-05
9.71822e-05
9.78862e-05
9.85656e-05
9.92197e-05
9.9849e-05
0.000100457
0.000101046
0.000101611
0.000102153
0.000102672
0.000103169
0.000103641
0.00010409
0.000104514
0.000104914
0.00010529
0.00010564
0.000105965
0.000106264
0.000106538
0.000106785
0.000107007
0.000107202
0.000107371
0.000107514
0.00010763
0.00010772
0.000107783
0.00010782
0.00010783
0.000107814
0.000107772
0.000107704
0.00010761
0.00010749
0.000107344
0.000107179
0.000106983
0.00010676
0.00010651
0.00010624
0.000105951
0.000105632
0.000105293
0.00010493
0.000104546
0.000104139
0.000103711
0.000103263
0.000102795
0.000102307
0.000101799
0.000101273
0.000100729
0.000100168
9.95899e-05
9.89956e-05
9.83859e-05
9.77615e-05
9.71229e-05
9.6471e-05
9.58064e-05
9.51298e-05
9.44421e-05
9.37441e-05
9.30366e-05
9.23211e-05
9.15998e-05
9.08807e-05
9.02419e-05
8.98043e-05
8.93983e-05
8.89914e-05
8.85809e-05
8.81665e-05
8.77483e-05
8.7326e-05
8.68985e-05
8.64636e-05
8.60161e-05
8.55457e-05
8.50212e-05
8.43831e-05
8.25245e-05
4.44606e-06
1.81874e-05
4.03179e-05
5.95898e-05
7.37512e-05
8.37471e-05
9.0835e-05
9.59013e-05
9.94802e-05
0.000101874
0.000103594
0.000105231
0.00010702
0.000108994
0.000111093
0.000113224
0.000115303
0.000117277
0.000119135
0.000120933
0.000122485
0.000123826
0.000125131
0.000126512
0.000128045
0.0001298
0.000131858
0.000134322
0.000137336
0.000141058
0.000145229
0.000149834
0.000154847
0.000160265
0.000166061
0.000172192
0.000178656
0.000185413
0.000192429
0.000199669
0.000207098
0.000214681
0.000222383
0.000230171
0.000238014
0.000245886
0.000253771
0.000261673
0.000269627
0.000277622
0.000285667
0.000293761
0.000301909
0.000310113
0.000318377
0.000326704
0.000335098
0.000343561
0.000352099
0.000360715
0.000369411
0.000378191
0.000387056
0.000396009
0.000405051
0.000414184
0.000423407
0.000432722
0.000442129
0.000451625
0.00046121
0.000470883
0.000480641
0.000490482
0.000500402
0.000510398
0.000520466
0.000530601
0.000540799
0.000551055
0.000561363
0.000571718
0.000582114
0.000592544
0.000603003
0.000613483
0.000623978
0.000634482
0.000644988
0.000655491
0.000665984
0.000676461
0.000686917
0.000697346
0.000707741
0.000718093
0.000728387
0.000738601
0.000748697
0.000758601
0.000768187
0.000777235
0.000785689
0.000794088
0.000802332
0.000810442
0.000818407
0.000826222
0.000833881
0.000841378
0.000848707
0.000855863
0.00086284
0.000869633
0.000876236
0.000882644
0.000888854
0.000894859
0.000900657
0.000906242
0.000911612
0.000916763
0.000921691
0.000926392
0.000930865
0.000935106
0.000939113
0.000942886
0.000946424
0.000949728
0.000952798
0.000955624
0.000958219
0.000960647
0.000962757
0.000964482
0.000966008
0.000967458
0.000968581
0.000969469
0.000970121
0.000970535
0.000970716
0.000970665
0.000970384
0.00096988
0.000969155
0.000968214
0.00096706
0.000965697
0.000964131
0.000962367
0.000960409
0.000958262
0.000955934
0.000953428
0.000950752
0.000947912
0.000944913
0.000941761
0.000938461
0.000935017
0.000931426
0.000927655
0.000923524
0.000918116
0.00091095
0.000903194
0.00089522
0.000887132
0.000878967
0.00087074
0.000862458
0.000854116
0.000845694
0.000837142
0.00082831
0.000818926
0.000807566
0.000779657
5.75994e-06
2.70796e-05
6.23318e-05
9.50205e-05
0.000121363
0.000141358
0.000156033
0.000166699
0.000174504
0.000180314
0.000184851
0.0001887
0.000192254
0.00019573
0.000199219
0.000202731
0.000206239
0.000209705
0.000213089
0.000216354
0.000219745
0.00022346
0.000227614
0.000232311
0.000237647
0.000243706
0.000250541
0.000258153
0.000266453
0.000275263
0.000284815
0.000295113
0.00030612
0.000317775
0.000330397
0.000343783
0.000357643
0.00037191
0.000386527
0.000401441
0.000416605
0.000431978
0.00044752
0.0004632
0.000478991
0.000494876
0.000510839
0.000526882
0.000543024
0.000559261
0.000575599
0.000592042
0.000608594
0.00062526
0.000642046
0.000658958
0.000676001
0.000693178
0.000710498
0.000727965
0.000745586
0.000763362
0.000781297
0.000799392
0.000817648
0.000836066
0.000854644
0.000873381
0.000892275
0.000911322
0.000930518
0.000949859
0.000969338
0.00098895
0.00100869
0.00102854
0.0010485
0.00106856
0.00108871
0.00110894
0.00112923
0.00114958
0.00116998
0.0011904
0.00121085
0.0012313
0.00125174
0.00127216
0.00129255
0.00131289
0.00133317
0.00135337
0.00137348
0.00139347
0.00141334
0.00143305
0.00145257
0.00147185
0.00149085
0.00150948
0.00152766
0.00154533
0.00156259
0.00157961
0.00159634
0.00161277
0.0016289
0.00164471
0.00166019
0.00167533
0.00169011
0.00170452
0.00171856
0.0017322
0.00174545
0.00175828
0.0017707
0.00178269
0.00179424
0.00180534
0.001816
0.00182619
0.00183592
0.00184518
0.00185395
0.00186225
0.00187006
0.00187737
0.0018842
0.00189054
0.00189639
0.00190174
0.00190662
0.0019111
0.00191503
0.00191814
0.00192084
0.00192325
0.0019251
0.00192645
0.0019273
0.00192766
0.00192754
0.00192695
0.00192589
0.00192437
0.00192239
0.00191997
0.00191711
0.00191383
0.00191012
0.00190601
0.0019015
0.00189661
0.00189134
0.00188571
0.00187972
0.0018734
0.00186676
0.0018598
0.00185254
0.00184498
0.00183713
0.00182893
0.00182016
0.00181008
0.00179825
0.00178551
0.00177229
0.00175879
0.00174509
0.00173122
0.00171721
0.00170305
0.0016887
0.00167405
0.00165882
0.00164226
0.00162159
0.00157943
6.69542e-06
3.73287e-05
8.37235e-05
0.000125583
0.000159223
0.00018506
0.00020441
0.000218714
0.000229301
0.000237302
0.000243635
0.000249009
0.00025393
0.000258727
0.000263591
0.000268625
0.000273879
0.000279392
0.000285212
0.000291417
0.000298131
0.000305478
0.000313561
0.000322467
0.000332267
0.00034301
0.000354718
0.000367387
0.000380995
0.000395523
0.000411003
0.000427424
0.000444765
0.000463021
0.000481762
0.000500933
0.000520604
0.000540723
0.000561225
0.000582042
0.000603126
0.000624467
0.000646031
0.000667797
0.000689752
0.000711901
0.000734271
0.000756835
0.000779549
0.00080241
0.000825422
0.00084859
0.000871921
0.00089542
0.000919093
0.000942947
0.000966987
0.000991219
0.00101565
0.00104028
0.00106512
0.00109017
0.00111543
0.00114091
0.0011666
0.00119251
0.00121862
0.00124494
0.00127146
0.00129817
0.00132507
0.00135215
0.00137941
0.00140682
0.00143438
0.00146208
0.0014899
0.00151784
0.00154587
0.00157399
0.00160217
0.0016304
0.00165867
0.00168695
0.00171523
0.00174348
0.0017717
0.00179986
0.00182794
0.00185593
0.00188379
0.00191151
0.00193907
0.00196643
0.00199357
0.00202046
0.00204706
0.00207333
0.00209922
0.00212466
0.00214961
0.00217409
0.00219816
0.00222186
0.00224516
0.00226805
0.0022905
0.00231251
0.00233406
0.00235513
0.0023757
0.00239576
0.00241529
0.00243427
0.0024527
0.00247056
0.00248784
0.00250452
0.0025206
0.00253606
0.00255089
0.00256508
0.00257863
0.00259152
0.00260375
0.00261531
0.00262619
0.0026364
0.00264593
0.00265478
0.00266295
0.00267043
0.00267731
0.00268365
0.00268904
0.00269346
0.0026974
0.00270077
0.00270342
0.00270537
0.00270664
0.00270723
0.00270716
0.00270644
0.00270506
0.00270305
0.00270041
0.00269715
0.00269328
0.00268882
0.00268378
0.00267817
0.002672
0.00266529
0.00265806
0.00265032
0.00264209
0.00263338
0.00262422
0.00261461
0.00260457
0.00259411
0.00258324
0.00257191
0.00255993
0.00254683
0.00253234
0.00251689
0.00250081
0.00248433
0.00246753
0.00245048
0.00243321
0.00241572
0.002398
0.0023799
0.00236111
0.0023407
0.0023154
0.00227059
7.35252e-06
4.79225e-05
0.000104285
0.000153496
0.000192851
0.000223066
0.000245845
0.000262897
0.000275743
0.00028567
0.00029372
0.000300699
0.000307195
0.000313614
0.000320217
0.000327168
0.00033457
0.000342504
0.000351047
0.000360282
0.000370302
0.000381199
0.000393048
0.000405913
0.000419838
0.000434846
0.00045094
0.000468106
0.000486319
0.000505545
0.000525748
0.000546869
0.000568831
0.000591538
0.000614853
0.000638719
0.000663105
0.000687965
0.000713254
0.000738937
0.000764974
0.000791304
0.000817894
0.000844722
0.000871767
0.000899009
0.000926414
0.000953983
0.000981746
0.00100971
0.00103787
0.00106624
0.00109482
0.00112362
0.00115264
0.00118188
0.00121136
0.00124107
0.001271
0.00130118
0.00133159
0.00136226
0.00139318
0.00142434
0.00145575
0.0014874
0.00151928
0.00155139
0.00158372
0.00161627
0.00164902
0.00168196
0.00171508
0.00174836
0.0017818
0.00181538
0.00184907
0.00188287
0.00191676
0.00195071
0.00198471
0.00201874
0.00205278
0.0020868
0.00212079
0.00215473
0.00218858
0.00222234
0.00225596
0.00228944
0.00232275
0.00235585
0.00238873
0.00242135
0.00245368
0.00248569
0.00251736
0.00254863
0.00257949
0.0026099
0.00263987
0.00266937
0.00269841
0.002727
0.00275512
0.00278274
0.00280985
0.00283643
0.00286245
0.0028879
0.00291276
0.00293701
0.00296064
0.00298362
0.00300594
0.00302759
0.00304854
0.0030688
0.00308833
0.00310713
0.0031252
0.00314251
0.00315905
0.00317482
0.00318981
0.003204
0.0032174
0.00323
0.0032418
0.00325278
0.00326297
0.00327236
0.00328115
0.00328906
0.00329591
0.00330168
0.00330698
0.00331145
0.00331511
0.00331794
0.00331996
0.00332119
0.00332163
0.00332128
0.00332016
0.00331829
0.00331566
0.0033123
0.00330821
0.00330341
0.00329791
0.00329172
0.00328487
0.00327737
0.00326923
0.00326048
0.00325112
0.00324118
0.00323068
0.00321964
0.00320807
0.00319598
0.00318339
0.00317025
0.00315646
0.00314173
0.00312591
0.00310919
0.00309179
0.0030739
0.00305561
0.003037
0.00301812
0.00299897
0.00297956
0.00295976
0.00293924
0.002917
0.0028899
0.0028471
7.82154e-06
5.76547e-05
0.000123075
0.000178851
0.000223225
0.000257319
0.000283179
0.000302765
0.00031777
0.000329607
0.000339415
0.00034808
0.00035626
0.000364421
0.000372877
0.000381838
0.000391443
0.000401794
0.000412974
0.000425061
0.000438125
0.00045223
0.000467428
0.000483754
0.000501226
0.000519844
0.000539593
0.000560443
0.000582351
0.000605266
0.000629129
0.000653867
0.000679404
0.000705656
0.000732548
0.000760019
0.000788022
0.00081651
0.000845438
0.000874767
0.000904455
0.000934465
0.000964768
0.000995342
0.00102617
0.00105723
0.00108852
0.00112003
0.00115177
0.00118375
0.00121595
0.0012484
0.00128108
0.00131401
0.00134718
0.0013806
0.00141428
0.00144821
0.00148242
0.00151689
0.00155161
0.0015866
0.00162183
0.00165731
0.00169303
0.001729
0.00176519
0.00180161
0.00183824
0.00187507
0.0019121
0.00194931
0.00198668
0.00202421
0.00206187
0.00209966
0.00213754
0.00217552
0.00221356
0.00225164
0.00228976
0.00232788
0.00236598
0.00240405
0.00244206
0.00247999
0.00251781
0.0025555
0.00259304
0.00263039
0.00266755
0.00270447
0.00274113
0.0027775
0.00281356
0.00284927
0.0028846
0.00291953
0.00295404
0.00298809
0.00302168
0.00305479
0.00308742
0.00311953
0.00315113
0.00318219
0.00321268
0.00324258
0.00327188
0.00330055
0.00332857
0.00335593
0.0033826
0.00340856
0.00343381
0.00345831
0.00348206
0.00350504
0.00352723
0.00354862
0.0035692
0.00358896
0.00360787
0.00362594
0.00364315
0.0036595
0.00367497
0.00368956
0.00370327
0.00371609
0.00372802
0.00373916
0.00374963
0.00375895
0.00376719
0.0037744
0.003781
0.00378668
0.00379145
0.00379533
0.00379831
0.00380042
0.00380165
0.00380202
0.00380155
0.00380023
0.00379808
0.00379512
0.00379135
0.00378679
0.00378146
0.00377536
0.00376852
0.00376094
0.00375265
0.00374367
0.00373401
0.00372369
0.00371273
0.00370115
0.00368897
0.00367621
0.00366286
0.00364892
0.00363432
0.00361891
0.00360259
0.00358545
0.00356764
0.00354928
0.00353048
0.0035113
0.00349181
0.00347205
0.00345202
0.00343164
0.00341062
0.00338803
0.00336114
0.00332214
8.1577e-06
6.67093e-05
0.00013996
0.000201501
0.000250425
0.000288191
0.000317086
0.000339246
0.000356492
0.000370336
0.000381999
0.000392434
0.000402358
0.000412291
0.000422595
0.000433514
0.000445215
0.000457812
0.00047139
0.000486014
0.000501739
0.000518603
0.000536634
0.000555844
0.000576229
0.000597772
0.000620441
0.000644194
0.000668979
0.000694738
0.000721406
0.000748914
0.000777194
0.000806177
0.000835802
0.000866013
0.00089676
0.000927997
0.000959682
0.000991778
0.00102425
0.00105706
0.0010902
0.00112363
0.00115735
0.00119134
0.00122559
0.00126009
0.00129485
0.00132986
0.00136512
0.00140063
0.00143639
0.0014724
0.00150866
0.00154519
0.00158196
0.001619
0.00165629
0.00169384
0.00173165
0.0017697
0.001808
0.00184653
0.0018853
0.0019243
0.00196352
0.00200295
0.00204258
0.0020824
0.0021224
0.00216257
0.00220289
0.00224335
0.00228393
0.00232462
0.00236539
0.00240624
0.00244714
0.00248808
0.00252903
0.00256997
0.00261088
0.00265174
0.00269253
0.00273323
0.0027738
0.00281423
0.0028545
0.00289457
0.00293442
0.00297403
0.00301337
0.00305241
0.00309113
0.00312949
0.00316747
0.00320505
0.0032422
0.0032789
0.00331513
0.00335087
0.00338611
0.00342082
0.00345499
0.00348859
0.0035216
0.003554
0.00358577
0.00361687
0.0036473
0.00367704
0.00370605
0.00373433
0.00376184
0.00378859
0.00381454
0.00383968
0.00386399
0.00388747
0.00391009
0.00393185
0.00395272
0.0039727
0.00399178
0.00400994
0.00402718
0.0040435
0.00405888
0.00407332
0.00408684
0.00409963
0.00411145
0.00412221
0.0041318
0.00414047
0.00414835
0.00415526
0.00416122
0.00416622
0.00417029
0.00417343
0.00417565
0.00417696
0.00417737
0.00417688
0.00417552
0.00417329
0.00417021
0.00416628
0.00416152
0.00415595
0.00414959
0.00414243
0.00413452
0.00412585
0.00411645
0.00410633
0.00409552
0.00408403
0.00407189
0.0040591
0.00404569
0.00403164
0.00401692
0.00400147
0.00398522
0.00396822
0.00395056
0.00393232
0.00391361
0.0038945
0.00387506
0.00385533
0.00383537
0.00381511
0.00379435
0.00377228
0.00374661
0.00371151
8.41966e-06
7.43823e-05
0.000154165
0.000220873
0.000274083
0.000315501
0.000347516
0.000372381
0.000392011
0.000407996
0.000421622
0.000433901
0.000445605
0.0004573
0.000469388
0.000482149
0.000495768
0.000510372
0.000526045
0.000542843
0.000560806
0.000579953
0.000600293
0.00062182
0.000644518
0.000668355
0.00069329
0.000719272
0.000746244
0.000774148
0.00080292
0.000832497
0.000862818
0.000893825
0.000925479
0.000957715
0.000990485
0.00102374
0.00105745
0.00109157
0.00112608
0.00116094
0.00119615
0.00123167
0.00126749
0.00130359
0.00133998
0.00137665
0.00141358
0.00145076
0.00148819
0.00152587
0.0015638
0.00160197
0.00164038
0.00167904
0.00171794
0.00175709
0.00179648
0.0018361
0.00187597
0.00191606
0.00195638
0.00199692
0.00203768
0.00207865
0.00211983
0.0021612
0.00220275
0.00224449
0.00228639
0.00232844
0.00237063
0.00241296
0.00245539
0.00249793
0.00254055
0.00258324
0.00262597
0.00266874
0.00271152
0.00275429
0.00279704
0.00283974
0.00288236
0.0029249
0.00296733
0.00300961
0.00305174
0.00309368
0.00313541
0.0031769
0.00321814
0.00325908
0.00329971
0.00334
0.00337992
0.00341945
0.00345857
0.00349725
0.00353547
0.0035732
0.00361043
0.00364713
0.00368328
0.00371886
0.00375385
0.00378821
0.00382193
0.00385498
0.00388734
0.00391899
0.00394991
0.00398007
0.00400946
0.00403805
0.00406584
0.00409279
0.0041189
0.00414415
0.00416851
0.00419199
0.00421456
0.00423621
0.00425693
0.00427671
0.00429554
0.00431341
0.00433031
0.00434624
0.00436127
0.00437552
0.00438864
0.00440078
0.00441173
0.00442183
0.00443099
0.00443916
0.00444634
0.00445254
0.00445777
0.00446205
0.00446538
0.00446776
0.00446921
0.00446975
0.00446937
0.00446809
0.00446593
0.00446289
0.00445899
0.00445425
0.00444867
0.00444228
0.00443509
0.0044271
0.00441835
0.00440885
0.0043986
0.00438765
0.00437599
0.00436365
0.00435064
0.00433696
0.00432262
0.00430756
0.00429177
0.00427528
0.00425814
0.00424041
0.00422219
0.00420355
0.00418457
0.00416531
0.00414584
0.00412616
0.0041061
0.00408501
0.00406106
0.00403028
8.91223e-06
7.81701e-05
0.000163712
0.000235846
0.000293555
0.000338866
0.000374198
0.000401939
0.000424103
0.000442355
0.00045804
0.000472222
0.00048572
0.000499143
0.000512929
0.000527386
0.000542722
0.000559073
0.000576525
0.000595133
0.000614921
0.000635896
0.000658052
0.000681372
0.000705839
0.00073143
0.000758077
0.00078572
0.000814303
0.000843766
0.00087405
0.000905094
0.000936838
0.000969215
0.00100221
0.00103578
0.0010699
0.00110452
0.00113961
0.00117513
0.00121105
0.00124733
0.00128393
0.0013208
0.00135797
0.00139543
0.00143318
0.00147124
0.00150956
0.00154813
0.00158692
0.00162594
0.00166518
0.00170465
0.00174434
0.00178424
0.00182437
0.00186472
0.00190528
0.00194606
0.00198706
0.00202826
0.00206967
0.00211128
0.0021531
0.00219511
0.00223731
0.00227969
0.00232225
0.00236498
0.00240787
0.00245091
0.0024941
0.00253741
0.00258085
0.00262439
0.00266803
0.00271174
0.00275552
0.00279935
0.00284321
0.00288708
0.00293094
0.00297478
0.00301858
0.0030623
0.00310594
0.00314947
0.00319287
0.0032361
0.00327916
0.003322
0.00336462
0.00340697
0.00344903
0.00349079
0.0035322
0.00357325
0.0036139
0.00365414
0.00369394
0.00373328
0.00377212
0.00381044
0.00384823
0.00388544
0.00392207
0.00395808
0.00399345
0.00402815
0.00406217
0.00409547
0.00412803
0.00415984
0.00419086
0.00422109
0.0042505
0.00427906
0.00430677
0.00433361
0.00435955
0.00438459
0.00440871
0.00443189
0.00445413
0.00447541
0.00449572
0.00451506
0.0045334
0.00455076
0.00456725
0.00458278
0.00459727
0.00461075
0.00462311
0.00463458
0.00464505
0.00465449
0.00466293
0.00467038
0.00467684
0.00468232
0.00468684
0.0046904
0.00469302
0.00469469
0.00469544
0.00469527
0.0046942
0.00469224
0.00468939
0.00468569
0.00468113
0.00467573
0.00466951
0.00466247
0.00465465
0.00464604
0.00463667
0.00462655
0.0046157
0.00460414
0.00459188
0.00457893
0.00456529
0.00455096
0.00453592
0.0045202
0.00450384
0.00448689
0.00446944
0.00445155
0.0044333
0.00441479
0.00439609
0.00437724
0.00435814
0.00433827
0.00431621
0.00428971
9.46704e-06
7.95639e-05
0.000169584
0.000246808
0.000308934
0.000358216
0.000396974
0.000427704
0.000452506
0.00047311
0.000490917
0.000507034
0.000522319
0.000537417
0.000552801
0.000568803
0.000585651
0.00060349
0.000622416
0.000642495
0.000663752
0.000686158
0.000709681
0.000734278
0.000759879
0.000786469
0.00081406
0.000842612
0.000872073
0.000902389
0.000933507
0.000965374
0.000997945
0.00103118
0.00106505
0.00109949
0.00113446
0.00116991
0.00120581
0.00124211
0.00127878
0.00131582
0.00135321
0.00139093
0.00142895
0.00146725
0.00150579
0.00154452
0.0015835
0.00162268
0.00166205
0.00170161
0.00174134
0.00178126
0.00182137
0.00186167
0.00190216
0.00194284
0.00198371
0.00202477
0.00206602
0.00210746
0.0021491
0.00219093
0.00223295
0.00227516
0.00231756
0.00236015
0.00240292
0.00244587
0.00248899
0.00253228
0.00257574
0.00261935
0.00266311
0.002707
0.00275102
0.00279516
0.00283939
0.00288371
0.00292811
0.00297256
0.00301705
0.00306156
0.00310607
0.00315056
0.003195
0.00323938
0.00328368
0.00332785
0.0033719
0.00341577
0.00345946
0.00350293
0.00354615
0.0035891
0.00363174
0.00367406
0.00371602
0.00375759
0.00379875
0.00383947
0.00387972
0.00391947
0.0039587
0.00399737
0.00403547
0.00407297
0.00410983
0.00414604
0.00418156
0.00421637
0.00425045
0.00428378
0.00431632
0.00434807
0.00437899
0.00440907
0.00443829
0.00446662
0.00449406
0.00452059
0.00454619
0.00457084
0.00459454
0.00461727
0.00463902
0.00465978
0.00467954
0.00469831
0.00471617
0.00473301
0.00474885
0.00476369
0.00477748
0.00479034
0.00480213
0.00481288
0.00482262
0.00483136
0.0048391
0.00484586
0.00485165
0.00485647
0.00486033
0.00486325
0.00486524
0.0048663
0.00486645
0.0048657
0.00486406
0.00486155
0.00485818
0.00485396
0.0048489
0.00484302
0.00483632
0.00482884
0.00482057
0.00481153
0.00480174
0.0047912
0.00477995
0.00476798
0.00475532
0.00474195
0.00472789
0.00471316
0.00469778
0.00468182
0.00466533
0.00464839
0.00463108
0.00461351
0.00459576
0.00457791
0.00455991
0.00454135
0.00452115
0.00449813
9.95525e-06
7.97561e-05
0.000172905
0.00025444
0.00032059
0.000373679
0.000415818
0.000449546
0.000477015
0.000500002
0.000519947
0.000537994
0.00055503
0.00057173
0.000588595
0.000605997
0.000624175
0.000643247
0.000663274
0.00068425
0.000706255
0.000729354
0.000753546
0.000778813
0.000805148
0.000832539
0.000860924
0.000890218
0.00092036
0.000951299
0.000982985
0.00101537
0.00104841
0.00108206
0.00111628
0.00115101
0.00118619
0.00122182
0.00125784
0.00129425
0.00133099
0.00136807
0.00140544
0.00144308
0.00148097
0.00151909
0.00155746
0.00159613
0.00163505
0.00167412
0.00171327
0.00175254
0.00179192
0.00183145
0.00187112
0.00191094
0.00195093
0.00199108
0.0020314
0.0020719
0.00211258
0.00215345
0.00219451
0.00223577
0.00227723
0.0023189
0.00236079
0.00240288
0.00244519
0.00248772
0.00253047
0.00257343
0.0026166
0.00265998
0.00270356
0.00274733
0.00279129
0.00283543
0.00287974
0.00292419
0.00296878
0.0030135
0.00305832
0.00310322
0.00314819
0.00319321
0.00323824
0.00328327
0.00332827
0.00337322
0.00341809
0.00346285
0.00350747
0.00355192
0.00359618
0.00364021
0.00368398
0.00372746
0.00377062
0.00381343
0.00385586
0.00389787
0.00393945
0.00398055
0.00402114
0.00406121
0.00410071
0.00413963
0.00417793
0.00421557
0.00425255
0.00428882
0.00432437
0.00435917
0.00439319
0.00442641
0.00445881
0.00449037
0.00452106
0.00455087
0.00457978
0.00460778
0.00463483
0.00466094
0.00468609
0.00471026
0.00473344
0.00475562
0.0047768
0.00479699
0.00481619
0.00483438
0.00485162
0.00486785
0.00488306
0.00489737
0.00491053
0.00492261
0.0049337
0.00494378
0.00495287
0.00496097
0.0049681
0.00497426
0.00497946
0.00498372
0.00498704
0.00498944
0.00499092
0.00499151
0.0049912
0.00499002
0.00498798
0.00498508
0.00498135
0.00497678
0.0049714
0.00496521
0.00495823
0.00495047
0.00494194
0.00493265
0.00492261
0.00491185
0.00490037
0.00488818
0.00487529
0.00486172
0.00484751
0.0048327
0.00481734
0.00480151
0.00478531
0.00476882
0.00475217
0.00473543
0.0047186
0.00470139
0.00468293
0.00466283
1.03724e-05
7.90914e-05
0.000174192
0.000259189
0.000328855
0.000385437
0.000430787
0.00046742
0.000497502
0.000522832
0.000544873
0.000564803
0.000583539
0.000601728
0.00061984
0.000638174
0.000657063
0.000676755
0.000697393
0.000719095
0.000741928
0.000765822
0.000790743
0.000816664
0.000843553
0.000871346
0.000899964
0.000929386
0.000959575
0.000990486
0.00102207
0.00105429
0.0010871
0.00112045
0.0011543
0.0011886
0.00122332