/*--------------------------------*- C++ -*----------------------------------*\
| =========                 |                                                 |
| \\      /  F ield         | OpenFOAM: The Open Source CFD Toolbox           |
|  \\    /   O peration     | Version:  v1906                                 |
|   \\  /    A nd           | Web:      www.OpenFOAM.com                      |
|    \\/     M anipulation  |                                                 |
\*---------------------------------------------------------------------------*/
FoamFile
{
    version     2.0;
    format      ascii;
    class       volScalarField;
    location    "283";
    object      p;
}
// * * * * * * * * * * * * * * * * * * * * * * * * * * * * * * * * * * * * * //

dimensions      [0 2 -2 0 0 0 0];


internalField   nonuniform List<scalar> 
12225
(
-1.71725
-3.8819
-4.97437
-5.28802
-5.46478
-5.64352
-5.79161
-5.90324
-5.99487
-6.07784
-6.15521
-6.22804
-6.29802
-6.36715
-6.43791
-6.50976
-6.59731
-6.65057
-4.86314
-5.64337
-5.84788
-5.7597
-5.73458
-5.7988
-5.88185
-5.95613
-6.0256
-6.09483
-6.16342
-6.23046
-6.29649
-6.36271
-6.43079
-6.50202
-6.5812
-6.68429
-5.24189
-5.16999
-5.28896
-5.37579
-5.48406
-5.62648
-5.76124
-5.87165
-5.96563
-6.05125
-6.13099
-6.20571
-6.27695
-6.3465
-6.41635
-6.48774
-6.56547
-6.64844
-5.10834
-5.02069
-5.27978
-5.47178
-5.59423
-5.71545
-5.82902
-5.92337
-6.0045
-6.07968
-6.15122
-6.21954
-6.28565
-6.3508
-6.41633
-6.48299
-6.55193
-6.61789
-5.0969
-5.11346
-5.36067
-5.52573
-5.6187
-5.71716
-5.81941
-5.90986
-5.98992
-6.06499
-6.13686
-6.20568
-6.2721
-6.33709
-6.40154
-6.46569
-6.52911
-6.58811
-5.15742
-5.20451
-5.39135
-5.53151
-5.62176
-5.71793
-5.81851
-5.90896
-5.98926
-6.06412
-6.1354
-6.2034
-6.26869
-6.33206
-6.3941
-6.4547
-6.51306
-6.56634
-5.22049
-5.2641
-5.40846
-5.53899
-5.63317
-5.72701
-5.82308
-5.91078
-5.98939
-6.06265
-6.13238
-6.19888
-6.26259
-6.32405
-6.38358
-6.44086
-6.49498
-6.54362
-5.2766
-5.31454
-5.43231
-5.55333
-5.64698
-5.73619
-5.82674
-5.91123
-5.98804
-6.05978
-6.12804
-6.19312
-6.2553
-6.3149
-6.37205
-6.42634
-6.47691
-6.52202
-5.32881
-5.36302
-5.46078
-5.56977
-5.65996
-5.74465
-5.83018
-5.91148
-5.98637
-6.05647
-6.12313
-6.18664
-6.24712
-6.30477
-6.35956
-6.4111
-6.45867
-6.50101
-5.37818
-5.40894
-5.49047
-5.5872
-5.67286
-5.7534
-5.83423
-5.91209
-5.9847
-6.05291
-6.11775
-6.17948
-6.23814
-6.29377
-6.34629
-6.39533
-6.44037
-6.4805
-5.42456
-5.45174
-5.52027
-5.60572
-5.68615
-5.76255
-5.83882
-5.91303
-5.98308
-6.04919
-6.11205
-6.17186
-6.22859
-6.28219
-6.33254
-6.37934
-6.42223
-6.46056
-5.46419
-5.48824
-5.54726
-5.62343
-5.69861
-5.77109
-5.84334
-5.91415
-5.98168
-6.0457
-6.10664
-6.1646
-6.21951
-6.27127
-6.31974
-6.36469
-6.40587
-6.44282
-5.50058
-5.52198
-5.57317
-5.64109
-5.71097
-5.77953
-5.84796
-5.91543
-5.98035
-6.04222
-6.10118
-6.15726
-6.21035
-6.26033
-6.30704
-6.35031
-6.39
-6.42577
-5.5384
-5.55718
-5.60109
-5.66087
-5.72483
-5.78894
-5.85321
-5.91695
-5.97885
-6.03819
-6.09485
-6.14878
-6.19982
-6.24784
-6.29269
-6.33425
-6.37245
-6.40709
-5.57614
-5.59238
-5.6298
-5.68191
-5.73966
-5.79888
-5.85874
-5.9185
-5.97701
-6.03347
-6.08756
-6.1391
-6.18792
-6.23386
-6.2768
-6.31666
-6.35343
-6.38699
-5.6115
-5.62541
-5.6573
-5.70259
-5.75427
-5.80846
-5.86384
-5.91952
-5.97447
-6.02784
-6.07917
-6.1282
-6.17471
-6.21855
-6.25962
-6.29785
-6.33327
-6.36584
-5.6411
-5.65308
-5.68057
-5.72022
-5.76651
-5.816
-5.86717
-5.91899
-5.97048
-6.02081
-6.06941
-6.11598
-6.16027
-6.20212
-6.24145
-6.27822
-6.31244
-6.34413
-5.65995
-5.67055
-5.69497
-5.73063
-5.7729
-5.81873
-5.86652
-5.91521
-5.96384
-6.01158
-6.05786
-6.10233
-6.14473
-6.18492
-6.22281
-6.25837
-6.29162
-6.3226
-5.66031
-5.67028
-5.69338
-5.72735
-5.7679
-5.81203
-5.85814
-5.9052
-5.95227
-5.99857
-6.0435
-6.08671
-6.12797
-6.16716
-6.20419
-6.23905
-6.27178
-6.30244
-5.63611
-5.6466
-5.67091
-5.70668
-5.74909
-5.79468
-5.84182
-5.88969
-5.93743
-5.98421
-6.02944
-6.07283
-6.11419
-6.1534
-6.19042
-6.22526
-6.25797
-6.28863
-5.60185
-5.61325
-5.64004
-5.67969
-5.72597
-5.77456
-5.82413
-5.87419
-5.92379
-5.97199
-6.0183
-6.06254
-6.10459
-6.14436
-6.18184
-6.21708
-6.25014
-6.28117
-5.55955
-5.57166
-5.60224
-5.64853
-5.7005
-5.75267
-5.80529
-5.85851
-5.91091
-5.96125
-6.00918
-6.05469
-6.09772
-6.13824
-6.17626
-6.21191
-6.24527
-6.27649
-5.51258
-5.52401
-5.55912
-5.61547
-5.67513
-5.73134
-5.78727
-5.84385
-5.89909
-5.95169
-6.00152
-6.04866
-6.09304
-6.13462
-6.17351
-6.20986
-6.24386
-6.27572
-5.46346
-5.4726
-5.51406
-5.58182
-5.64827
-5.70947
-5.77103
-5.83224
-5.89026
-5.94459
-5.9958
-6.04405
-6.08921
-6.13133
-6.17058
-6.2072
-6.24135
-6.27316
-5.41214
-5.41367
-5.47672
-5.55865
-5.62247
-5.68338
-5.75117
-5.81909
-5.88175
-5.93947
-5.99353
-6.04408
-6.09094
-6.13423
-6.1743
-6.21147
-6.24608
-6.27861
-5.36561
-5.3177
-5.43371
-5.55546
-5.61828
-5.67119
-5.73611
-5.8031
-5.86511
-5.92289
-5.97768
-6.02928
-6.07722
-6.1216
-6.16272
-6.20091
-6.23638
-6.26928
-5.38306
-5.18546
-5.31882
-5.49711
-5.60261
-5.68347
-5.76321
-5.83579
-5.89912
-5.95657
-6.01008
-6.05966
-6.10516
-6.14695
-6.18548
-6.22119
-6.25457
-6.28667
-5.52585
-5.27716
-5.25366
-5.30895
-5.39202
-5.50069
-5.61215
-5.71003
-5.79498
-5.87155
-5.94137
-6.00432
-6.06065
-6.11121
-6.1568
-6.19806
-6.23581
-6.27136
-5.25482
-5.88327
-6.00192
-5.86201
-5.77441
-5.78182
-5.82409
-5.86909
-5.91477
-5.96306
-6.01216
-6.05961
-6.10409
-6.14553
-6.18398
-6.21932
-6.2519
-6.28308
-2.19585
-3.96495
-4.97828
-5.25984
-5.38637
-5.52915
-5.65915
-5.75991
-5.84224
-5.91551
-5.98181
-6.04101
-6.09368
-6.14073
-6.18288
-6.22033
-6.25319
-6.27994
-7.06465
-7.0644
-7.06436
-7.06476
-7.06559
-7.06675
-7.06815
-7.06969
-7.07132
-7.07299
-7.07474
-7.07658
-7.07851
-7.08057
-7.08279
-7.08519
-7.0878
-7.09067
-7.09381
-7.09727
-7.1011
-7.10533
-7.11
-7.11516
-7.12086
-7.12716
-7.13412
-7.14183
-7.15036
-7.15981
-7.17025
-7.18175
-7.19438
-7.20818
-7.2232
-7.23946
-7.25696
-7.27569
-7.29562
-7.31671
-7.33891
-7.36216
-7.38638
-7.41151
-7.43748
-7.46427
-7.49179
-7.51989
-7.54841
-7.5773
-7.60648
-7.6359
-7.66549
-7.69519
-7.72492
-7.75462
-7.7842
-7.81359
-7.8427
-7.87145
-7.89974
-7.92747
-7.95453
-7.98081
-8.00619
-8.03054
-8.05372
-8.0756
-8.09603
-8.11485
-8.1319
-8.14702
-8.16002
-8.17073
-8.17896
-8.18452
-8.18722
-8.18686
-8.18323
-8.17613
-8.16536
-8.1507
-8.13195
-8.10889
-8.08133
-8.04905
-8.01186
-7.96954
-7.92192
-7.86878
-7.80996
-7.74528
-7.67457
-7.59766
-7.51442
-7.42469
-7.32834
-7.22523
-7.11535
-6.99878
-6.87558
-6.7454
-6.60777
-6.46266
-6.31027
-6.15065
-5.98382
-5.80982
-5.62869
-5.44047
-5.24525
-5.0431
-4.83413
-4.61846
-4.39623
-4.16759
-3.9327
-3.69175
-3.44494
-3.19248
-2.93461
-2.67157
-2.4036
-2.13097
-1.85397
-1.57287
-1.28797
-0.999598
-0.708052
-0.413665
-0.116763
0.182327
0.48329
0.785789
1.08945
1.39391
1.69883
2.0039
2.30877
2.61309
2.91653
3.21876
3.51946
3.81831
4.11502
4.40928
4.70082
4.98935
5.27462
5.55637
5.83438
6.10843
6.37829
6.64379
6.90474
7.16098
7.41235
7.65873
7.89999
8.13602
8.36672
8.59203
8.81187
9.02619
9.23497
9.43835
9.63617
9.8281
10.0141
10.1943
10.3685
10.537
10.6997
10.8568
11.0083
11.1546
11.2968
11.4361
11.5825
11.7327
-7.06512
-7.0649
-7.06489
-7.06536
-7.06624
-7.06731
-7.06845
-7.06964
-7.07085
-7.07208
-7.07332
-7.07463
-7.07605
-7.07761
-7.07935
-7.08127
-7.08341
-7.08579
-7.08845
-7.09139
-7.09464
-7.09822
-7.10223
-7.1067
-7.11173
-7.11736
-7.1237
-7.13082
-7.13882
-7.14778
-7.15778
-7.16889
-7.18118
-7.1947
-7.20949
-7.22557
-7.24292
-7.26151
-7.28132
-7.30229
-7.32436
-7.34746
-7.37152
-7.39646
-7.42219
-7.44867
-7.4758
-7.50347
-7.5316
-7.56011
-7.58893
-7.61799
-7.64723
-7.67659
-7.706
-7.73539
-7.76468
-7.7938
-7.82266
-7.85118
-7.87927
-7.90682
-7.93373
-7.9599
-7.98519
-8.00949
-8.03266
-8.05457
-8.07506
-8.09398
-8.11118
-8.12648
-8.13971
-8.15069
-8.15925
-8.16518
-8.16829
-8.16839
-8.16528
-8.15875
-8.14859
-8.1346
-8.11657
-8.09429
-8.06756
-8.03616
-7.9999
-7.95858
-7.912
-7.85998
-7.80232
-7.73887
-7.66944
-7.59389
-7.51207
-7.42383
-7.32904
-7.22756
-7.11929
-7.00405
-6.88164
-6.75203
-6.6154
-6.47177
-6.321
-6.16305
-5.99792
-5.82564
-5.64623
-5.45975
-5.26626
-5.06585
-4.8586
-4.64465
-4.42412
-4.19716
-3.96394
-3.72463
-3.47943
-3.22855
-2.97223
-2.71069
-2.44418
-2.17297
-1.89733
-1.61755
-1.33392
-1.04674
-0.756338
-0.46303
-0.167147
0.13099
0.431069
0.732759
1.03568
1.33948
1.64381
1.94837
2.25281
2.55677
2.85994
3.16198
3.46256
3.76138
4.05813
4.35251
4.64424
4.93304
5.21865
5.50081
5.7793
6.05388
6.32435
6.59052
6.85219
7.1092
7.3614
7.60865
7.85083
8.08782
8.31953
8.54588
8.76684
8.98236
9.19236
9.39643
9.59446
9.78666
9.973
10.1535
10.3282
10.4972
10.6605
10.8181
10.9705
11.1179
11.2618
11.4028
11.5526
11.6987
-7.06408
-7.06412
-7.0644
-7.06506
-7.06597
-7.0669
-7.06778
-7.06858
-7.06932
-7.07005
-7.07079
-7.07159
-7.07247
-7.07349
-7.07464
-7.07596
-7.07748
-7.07921
-7.08121
-7.08351
-7.08619
-7.08931
-7.09292
-7.09712
-7.10197
-7.10757
-7.11398
-7.1213
-7.12958
-7.13889
-7.14928
-7.1608
-7.17349
-7.18737
-7.20244
-7.2187
-7.23612
-7.25466
-7.2743
-7.29499
-7.31666
-7.33928
-7.36277
-7.38707
-7.41212
-7.43785
-7.46419
-7.49107
-7.51841
-7.54614
-7.57421
-7.60254
-7.63108
-7.65976
-7.68852
-7.71729
-7.74599
-7.77455
-7.80288
-7.83091
-7.85853
-7.88566
-7.91219
-7.938
-7.96299
-7.98702
-8.00997
-8.03169
-8.05204
-8.07088
-8.08803
-8.10334
-8.11664
-8.12774
-8.13647
-8.14263
-8.14604
-8.14649
-8.14379
-8.13774
-8.12812
-8.11474
-8.09738
-8.07585
-8.04992
-8.01941
-7.98409
-7.94379
-7.89829
-7.84741
-7.79098
-7.72881
-7.66072
-7.58657
-7.5062
-7.41947
-7.32624
-7.2264
-7.11985
-7.00642
-6.88594
-6.7583
-6.6236
-6.48186
-6.33304
-6.17708
-6.01398
-5.84375
-5.66642
-5.48203
-5.29065
-5.09235
-4.88723
-4.6754
-4.45698
-4.23213
-4.001
-3.76377
-3.52063
-3.27179
-3.01747
-2.7579
-2.49333
-2.22401
-1.95022
-1.67223
-1.39034
-1.10486
-0.816086
-0.524346
-0.229968
0.0667286
0.365437
0.665824
0.967522
1.27017
1.57345
1.87703
2.18056
2.48371
2.78614
3.08753
3.38755
3.68589
3.98224
4.27631
4.56781
4.85646
5.14199
5.42416
5.70273
5.97746
6.24814
6.51458
6.77658
7.03398
7.28663
7.53437
7.77709
8.01465
8.24696
8.47392
8.69543
8.91143
9.12191
9.32678
9.526
9.71952
9.90723
10.0891
10.2652
10.4355
10.6002
10.7594
10.9134
11.0627
11.209
11.352
11.5049
11.6404
-7.06096
-7.06143
-7.06226
-7.06328
-7.0643
-7.06521
-7.06598
-7.06663
-7.06717
-7.06767
-7.06815
-7.06868
-7.06929
-7.07001
-7.07089
-7.07196
-7.07325
-7.0748
-7.07666
-7.07889
-7.08155
-7.08471
-7.08845
-7.09284
-7.09796
-7.10387
-7.11065
-7.11835
-7.12704
-7.13676
-7.14755
-7.15942
-7.17241
-7.1865
-7.20169
-7.21797
-7.23531
-7.25369
-7.27307
-7.29341
-7.31467
-7.33679
-7.35973
-7.38343
-7.40784
-7.4329
-7.45855
-7.48474
-7.51139
-7.53845
-7.56587
-7.59358
-7.62152
-7.64964
-7.67786
-7.70612
-7.73434
-7.76246
-7.79039
-7.81805
-7.84534
-7.87217
-7.89843
-7.92402
-7.94882
-7.9727
-7.99554
-8.01719
-8.03752
-8.05637
-8.07358
-8.08898
-8.10242
-8.11371
-8.12266
-8.1291
-8.13283
-8.13365
-8.13136
-8.12577
-8.11667
-8.10384
-8.08709
-8.06621
-8.04099
-8.01122
-7.97671
-7.93725
-7.89265
-7.84271
-7.78726
-7.72612
-7.65911
-7.58606
-7.50683
-7.42127
-7.32923
-7.23059
-7.12524
-7.01306
-6.89392
-6.76775
-6.63456
-6.49432
-6.34701
-6.19258
-6.03104
-5.86239
-5.68665
-5.50387
-5.3141
-5.11741
-4.91391
-4.7037
-4.4869
-4.26366
-4.03413
-3.79849
-3.55692
-3.30963
-3.05684
-2.79877
-2.53567
-2.2678
-1.99541
-1.71879
-1.43824
-1.15404
-0.866508
-0.575965
-0.282737
0.0128663
0.310536
0.609927
0.910673
1.21244
1.51491
1.81774
2.12058
2.4231
2.72497
3.02586
3.32544
3.62341
3.91945
4.21328
4.50459
4.79311
5.07858
5.36075
5.63936
5.91419
6.18503
6.45167
6.71392
6.97162
7.2246
7.4727
7.7158
7.95378
8.18654
8.414
8.63605
8.85262
9.06366
9.2692
9.46922
9.6636
9.85222
10.035
10.2121
10.3834
10.5491
10.7093
10.8645
11.0149
11.1623
11.3056
11.4574
11.58
-7.05575
-7.0568
-7.05846
-7.06011
-7.06147
-7.06255
-7.0634
-7.06405
-7.06457
-7.06501
-7.06544
-7.0659
-7.06645
-7.06714
-7.068
-7.06909
-7.07044
-7.07212
-7.07416
-7.07663
-7.0796
-7.08314
-7.08731
-7.09218
-7.09782
-7.10428
-7.11162
-7.11988
-7.1291
-7.13931
-7.15053
-7.16278
-7.17606
-7.19038
-7.20571
-7.22204
-7.23935
-7.25762
-7.2768
-7.29688
-7.3178
-7.33954
-7.36203
-7.38525
-7.40915
-7.43367
-7.45877
-7.4844
-7.5105
-7.53703
-7.56392
-7.59113
-7.6186
-7.64626
-7.67405
-7.70191
-7.72977
-7.75755
-7.78517
-7.81255
-7.83959
-7.86621
-7.89229
-7.91773
-7.94241
-7.9662
-7.98899
-8.01062
-8.03095
-8.04984
-8.06713
-8.08265
-8.09623
-8.10769
-8.11685
-8.12353
-8.12753
-8.12866
-8.12671
-8.12149
-8.11279
-8.1004
-8.08412
-8.06374
-8.03905
-8.00985
-7.97593
-7.93709
-7.89315
-7.8439
-7.78916
-7.72875
-7.66251
-7.59026
-7.51184
-7.42712
-7.33594
-7.23818
-7.13373
-7.02247
-6.9043
-6.77916
-6.64702
-6.50783
-6.36158
-6.20822
-6.04775
-5.88018
-5.70554
-5.52385
-5.33518
-5.1396
-4.9372
-4.7281
-4.5124
-4.29025
-4.06181
-3.82724
-3.58674
-3.3405
-3.08874
-2.83169
-2.56959
-2.30269
-2.03125
-1.75556
-1.47589
-1.19256
-0.905865
-0.616127
-0.323667
-0.0287871
0.268195
0.566919
0.867032
1.16822
1.47017
1.77252
2.07492
2.37704
2.67856
2.97914
3.27847
3.57622
3.8721
4.1658
4.45704
4.74553
5.03102
5.31323
5.59194
5.86691
6.13792
6.40477
6.66726
6.92522
7.1785
7.42694
7.67042
7.9088
8.142
8.36989
8.59241
8.80945
9.02096
9.22692
9.42734
9.62212
9.81117
9.99447
10.172
10.3439
10.5101
10.6709
10.8265
10.9774
11.1248
11.2668
11.4159
11.5264
-7.04906
-7.05074
-7.05341
-7.05586
-7.05773
-7.05913
-7.0602
-7.06103
-7.06168
-7.06223
-7.06276
-7.06334
-7.06402
-7.06486
-7.06592
-7.06724
-7.06888
-7.07089
-7.07332
-7.07624
-7.07971
-7.08379
-7.08855
-7.09403
-7.10029
-7.10737
-7.11533
-7.12418
-7.13395
-7.14466
-7.15633
-7.16895
-7.18254
-7.19707
-7.21254
-7.22893
-7.24623
-7.2644
-7.28343
-7.30329
-7.32394
-7.34536
-7.3675
-7.39033
-7.41382
-7.43791
-7.46258
-7.48778
-7.51345
-7.53956
-7.56604
-7.59286
-7.61995
-7.64726
-7.67473
-7.70229
-7.72988
-7.75741
-7.78481
-7.812
-7.83889
-7.86537
-7.89135
-7.91671
-7.94134
-7.96512
-7.98791
-8.00958
-8.02998
-8.04896
-8.06636
-8.08201
-8.09575
-8.1074
-8.11677
-8.12368
-8.12793
-8.12933
-8.12768
-8.12278
-8.11441
-8.10238
-8.08647
-8.06649
-8.04221
-8.01344
-7.97996
-7.94159
-7.89813
-7.84937
-7.79515
-7.73527
-7.66957
-7.59788
-7.52004
-7.4359
-7.34532
-7.24818
-7.14436
-7.03376
-6.91627
-6.79184
-6.66041
-6.52194
-6.3764
-6.22377
-6.06403
-5.89719
-5.72328
-5.54233
-5.35441
-5.15957
-4.95792
-4.74956
-4.53461
-4.3132
-4.08549
-3.85166
-3.61188
-3.36637
-3.11532
-2.85896
-2.59754
-2.33131
-2.06053
-1.78548
-1.50644
-1.22371
-0.937595
-0.648422
-0.356498
-0.0621249
0.234363
0.532606
0.83227
1.13306
1.43463
1.73663
2.03872
2.34056
2.64183
2.94219
3.24133
3.53894
3.8347
4.12831
4.4195
4.70797
4.99347
5.27573
5.55452
5.82959
6.10073
6.36773
6.63042
6.8886
7.14212
7.39083
7.6346
7.87329
8.1068
8.33502
8.55787
8.77525
8.98709
9.19335
9.39402
9.58905
9.77838
9.96197
10.1398
10.312
10.4785
10.6396
10.7954
10.9462
11.0931
11.2333
11.3795
11.4792
-7.04183
-7.04415
-7.04787
-7.05118
-7.05362
-7.05545
-7.05687
-7.05798
-7.05889
-7.05969
-7.06047
-7.06131
-7.06227
-7.06343
-7.06483
-7.06654
-7.06862
-7.0711
-7.07406
-7.07754
-7.0816
-7.0863
-7.09168
-7.0978
-7.10469
-7.11238
-7.12091
-7.1303
-7.14057
-7.15173
-7.16378
-7.17672
-7.19056
-7.20528
-7.22088
-7.23733
-7.25463
-7.27275
-7.29167
-7.31137
-7.33182
-7.35301
-7.37489
-7.39744
-7.42062
-7.44441
-7.46876
-7.49363
-7.51899
-7.54479
-7.57098
-7.59752
-7.62434
-7.65141
-7.67866
-7.70602
-7.73343
-7.76082
-7.7881
-7.81519
-7.84201
-7.86844
-7.8944
-7.91977
-7.94443
-7.96826
-7.99112
-8.01289
-8.0334
-8.05251
-8.07006
-8.08588
-8.0998
-8.11164
-8.12122
-8.12836
-8.13284
-8.13449
-8.1331
-8.12846
-8.12037
-8.10862
-8.093
-8.07331
-8.04934
-8.02088
-7.98773
-7.94968
-7.90655
-7.85813
-7.80425
-7.74473
-7.67938
-7.60805
-7.53058
-7.44682
-7.35663
-7.25989
-7.15648
-7.04629
-6.92924
-6.80525
-6.67428
-6.53626
-6.39118
-6.239
-6.07972
-5.91334
-5.7399
-5.55942
-5.37196
-5.1776
-4.97643
-4.76855
-4.55407
-4.33315
-4.10593
-3.87258
-3.63328
-3.38824
-3.13767
-2.88178
-2.62083
-2.35506
-2.08473
-1.81012
-1.53152
-1.24921
-0.963517
-0.674746
-0.383206
-0.0892044
0.206909
0.504789
0.80412
1.1046
1.4059
1.70763
2.00947
2.31108
2.61215
2.91233
3.21132
3.50879
3.80444
4.09797
4.3891
4.67754
4.96302
5.24529
5.5241
5.79922
6.07044
6.33755
6.60036
6.85869
7.11238
7.36127
7.60523
7.84413
8.07785
8.3063
8.52938
8.747
8.95907
9.16555
9.36643
9.56165
9.75119
9.93499
10.1131
10.2854
10.4521
10.6133
10.7691
10.9195
11.0656
11.2038
11.3473
11.4374
-7.03507
-7.03792
-7.04262
-7.04674
-7.04977
-7.05208
-7.05389
-7.05537
-7.05661
-7.05775
-7.05887
-7.06006
-7.0614
-7.06296
-7.0648
-7.06698
-7.06955
-7.07257
-7.07609
-7.08016
-7.08482
-7.09013
-7.09611
-7.10282
-7.11028
-7.11852
-7.12756
-7.13742
-7.14812
-7.15965
-7.17202
-7.18524
-7.19929
-7.21417
-7.22988
-7.2464
-7.26371
-7.2818
-7.30066
-7.32026
-7.34059
-7.36161
-7.38332
-7.40568
-7.42866
-7.45224
-7.47638
-7.50104
-7.5262
-7.5518
-7.5778
-7.60417
-7.63084
-7.65778
-7.68491
-7.71218
-7.73951
-7.76685
-7.7941
-7.82119
-7.84802
-7.87449
-7.90051
-7.92596
-7.95071
-7.97465
-7.99765
-8.01955
-8.04022
-8.05949
-8.07722
-8.09322
-8.10734
-8.11938
-8.12916
-8.1365
-8.1412
-8.14306
-8.14187
-8.13745
-8.12957
-8.11803
-8.10262
-8.08314
-8.05938
-8.03112
-7.99817
-7.96033
-7.91739
-7.86918
-7.81549
-7.75616
-7.69101
-7.61988
-7.5426
-7.45904
-7.36906
-7.27252
-7.16932
-7.05936
-6.94254
-6.81878
-6.68804
-6.55027
-6.40542
-6.25349
-6.09445
-5.92833
-5.75513
-5.57491
-5.38772
-5.19363
-4.99272
-4.78511
-4.57092
-4.35028
-4.12335
-3.89029
-3.6513
-3.40656
-3.15628
-2.9007
-2.64005
-2.37458
-2.10455
-1.83024
-1.55194
-1.26993
-0.984529
-0.696043
-0.404776
-0.111055
0.184773
0.48238
0.781459
1.08171
1.38278
1.6843
1.98594
2.28736
2.58825
2.88828
3.18712
3.48447
3.78001
4.07345
4.3645
4.65288
4.93832
5.22057
5.49938
5.77452
6.04578
6.31294
6.57582
6.83423
7.08801
7.33701
7.58109
7.82013
8.054
8.2826
8.50584
8.72361
8.93586
9.14251
9.34354
9.53891
9.72859
9.91254
10.0907
10.2632
10.43
10.5911
10.7467
10.8966
11.0416
11.1776
11.3187
11.4005
-7.02959
-7.03285
-7.0383
-7.04314
-7.04673
-7.04949
-7.05172
-7.05357
-7.05518
-7.05668
-7.05818
-7.05976
-7.06151
-7.0635
-7.0658
-7.06846
-7.07153
-7.07507
-7.07912
-7.08373
-7.08894
-7.09478
-7.1013
-7.10852
-7.11646
-7.12517
-7.13464
-7.14489
-7.15593
-7.16778
-7.18042
-7.19386
-7.20809
-7.22312
-7.23893
-7.25551
-7.27285
-7.29095
-7.30978
-7.32933
-7.34959
-7.37053
-7.39214
-7.4144
-7.43727
-7.46073
-7.48475
-7.50931
-7.53436
-7.55987
-7.58579
-7.61209
-7.63871
-7.6656
-7.69272
-7.71999
-7.74734
-7.77472
-7.80203
-7.82919
-7.85611
-7.88269
-7.90883
-7.93442
-7.95932
-7.98342
-8.00659
-8.02866
-8.04951
-8.06898
-8.08689
-8.10308
-8.11739
-8.12961
-8.13958
-8.1471
-8.15197
-8.15399
-8.15297
-8.14869
-8.14096
-8.12955
-8.11427
-8.0949
-8.07125
-8.04309
-8.01023
-7.97246
-7.9296
-7.88145
-7.82783
-7.76856
-7.70346
-7.63238
-7.55515
-7.47163
-7.38169
-7.2852
-7.18205
-7.07214
-6.95538
-6.83169
-6.70102
-6.56331
-6.41854
-6.26668
-6.10772
-5.94168
-5.76857
-5.58845
-5.40136
-5.20738
-5.00659
-4.79911
-4.58504
-4.36455
-4.13776
-3.90486
-3.66603
-3.42146
-3.17136
-2.91597
-2.6555
-2.39023
-2.1204
-1.84629
-1.56819
-1.28639
-1.0012
-0.712918
-0.421858
-0.128359
0.167248
0.464641
0.763519
1.06358
1.36446
1.6658
1.96726
2.26852
2.56925
2.86912
3.16782
3.46504
3.76046
4.0538
4.34476
4.63306
4.91844
5.20064
5.47942
5.75454
6.02579
6.29296
6.55585
6.8143
7.06812
7.31718
7.56133
7.80044
8.03439
8.26309
8.48643
8.70431
8.91667
9.12344
9.32458
9.52006
9.70983
9.89386
10.0721
10.2446
10.4114
10.5723
10.7276
10.8767
11.0206
11.1545
11.2934
11.368
-7.02596
-7.02948
-7.03538
-7.04074
-7.0448
-7.04798
-7.05058
-7.05279
-7.05476
-7.05662
-7.05849
-7.06045
-7.06259
-7.065
-7.06772
-7.07081
-7.07433
-7.07833
-7.08284
-7.08791
-7.09358
-7.09987
-7.10683
-7.11447
-7.12281
-7.13188
-7.14169
-7.15225
-7.16358
-7.17566
-7.18851
-7.20213
-7.21651
-7.23166
-7.24756
-7.2642
-7.28159
-7.29971
-7.31855
-7.33809
-7.35833
-7.37925
-7.40083
-7.42305
-7.44589
-7.46932
-7.49333
-7.51787
-7.54291
-7.56841
-7.59435
-7.62067
-7.64733
-7.67427
-7.70145
-7.72881
-7.75626
-7.78375
-7.81119
-7.83849
-7.86557
-7.89231
-7.91863
-7.94439
-7.96948
-7.99377
-8.01712
-8.03939
-8.06043
-8.08007
-8.09817
-8.11453
-8.129
-8.14138
-8.15149
-8.15913
-8.16412
-8.16625
-8.16532
-8.16111
-8.15344
-8.14208
-8.12683
-8.10748
-8.08382
-8.05565
-8.02277
-7.98497
-7.94206
-7.89386
-7.84017
-7.78082
-7.71565
-7.64448
-7.56717
-7.48356
-7.39353
-7.29696
-7.19373
-7.08373
-6.9669
-6.84314
-6.71239
-6.57462
-6.42979
-6.27788
-6.11887
-5.95279
-5.77966
-5.59951
-5.41241
-5.21842
-5.01764
-4.81018
-4.59615
-4.3757
-4.14897
-3.91614
-3.67738
-3.4329
-3.1829
-2.92761
-2.66727
-2.40212
-2.13243
-1.85847
-1.58052
-1.29888
-1.01385
-0.725731
-0.43485
-0.141541
0.153877
0.451084
0.749781
1.04966
1.35036
1.65151
1.95279
2.25388
2.55444
2.85416
3.15271
3.44978
3.74508
4.03829
4.32913
4.61733
4.90262
5.18474
5.46345
5.73851
6.00971
6.27684
6.53971
6.79814
7.05196
7.30103
7.54519
7.78433
8.01832
8.24706
8.47045
8.6884
8.90082
9.10766
9.30887
9.50442
9.69424
9.87831
10.0566
10.2291
10.3957
10.5564
10.7111
10.8595
11.0021
11.134
11.2709
11.3393
-7.0244
-7.02801
-7.03407
-7.03974
-7.04416
-7.04766
-7.05058
-7.0531
-7.05539
-7.05757
-7.05976
-7.06205
-7.06454
-7.06729
-7.07037
-7.07382
-7.07772
-7.08208
-7.08697
-7.09241
-7.09843
-7.10507
-7.11236
-7.12031
-7.12895
-7.13829
-7.14835
-7.15913
-7.17065
-7.18291
-7.19591
-7.20966
-7.22416
-7.23939
-7.25537
-7.27208
-7.28953
-7.30769
-7.32657
-7.34615
-7.36642
-7.38737
-7.40898
-7.43123
-7.45411
-7.47759
-7.50165
-7.52625
-7.55136
-7.57695
-7.60298
-7.6294
-7.65617
-7.68325
-7.71057
-7.73807
-7.76568
-7.79334
-7.82096
-7.84845
-7.87571
-7.90266
-7.92916
-7.95512
-7.98041
-8.00489
-8.02842
-8.05087
-8.07207
-8.09187
-8.1101
-8.12659
-8.14117
-8.15364
-8.16382
-8.17153
-8.17655
-8.1787
-8.17776
-8.17354
-8.16583
-8.15441
-8.13909
-8.11964
-8.09588
-8.06758
-8.03456
-7.99661
-7.95354
-7.90516
-7.8513
-7.79176
-7.72639
-7.65503
-7.57751
-7.49371
-7.40348
-7.30671
-7.20329
-7.09311
-6.97609
-6.85215
-6.72124
-6.58331
-6.43833
-6.28627
-6.12713
-5.96093
-5.78768
-5.60743
-5.42025
-5.22619
-5.02535
-4.81784
-4.60379
-4.38332
-4.1566
-3.92378
-3.68506
-3.44062
-3.19069
-2.93547
-2.67522
-2.41017
-2.1406
-1.86676
-1.58895
-1.30746
-1.02258
-0.734632
-0.443938
-0.15082
0.144406
0.441418
0.739923
1.03961
1.34011
1.64106
1.94214
2.24304
2.54341
2.84294
3.14131
3.43821
3.73334
4.02639
4.31709
4.60515
4.8903
5.1723
5.45089
5.72585
5.99696
6.26401
6.52681
6.78518
7.03896
7.28799
7.53212
7.77125
8.00523
8.23397
8.45737
8.67534
8.88779
9.09466
9.29591
9.49147
9.68131
9.86538
10.0436
10.216
10.3824
10.5428
10.697
10.8446
10.9859
11.1158
11.2509
11.3141
-7.02489
-7.02844
-7.03444
-7.04022
-7.04483
-7.04855
-7.0517
-7.05446
-7.05698
-7.05941
-7.06185
-7.06441
-7.06716
-7.07019
-7.07354
-7.07727
-7.08143
-7.08607
-7.09122
-7.09691
-7.10318
-7.11005
-7.11756
-7.12571
-7.13454
-7.14405
-7.15426
-7.16519
-7.17683
-7.18921
-7.20232
-7.21616
-7.23074
-7.24605
-7.26211
-7.27889
-7.2964
-7.31463
-7.33357
-7.35323
-7.37357
-7.3946
-7.4163
-7.43865
-7.46163
-7.48521
-7.50937
-7.53408
-7.55932
-7.58505
-7.61124
-7.63782
-7.66477
-7.69203
-7.71953
-7.74722
-7.77503
-7.80289
-7.8307
-7.85839
-7.88585
-7.91298
-7.93968
-7.96581
-7.99126
-8.01589
-8.03956
-8.06213
-8.08343
-8.10332
-8.12161
-8.13815
-8.15275
-8.16522
-8.17538
-8.18304
-8.188
-8.19005
-8.18901
-8.18465
-8.17679
-8.1652
-8.14968
-8.13003
-8.10604
-8.07751
-8.04424
-8.00603
-7.96268
-7.91403
-7.85987
-7.80005
-7.73439
-7.66273
-7.58492
-7.50083
-7.41032
-7.31327
-7.20958
-7.09913
-6.98186
-6.85768
-6.72653
-6.58838
-6.44319
-6.29093
-6.13161
-5.96524
-5.79184
-5.61145
-5.42414
-5.22998
-5.02906
-4.82149
-4.60739
-4.38689
-4.16016
-3.92735
-3.68866
-3.44427
-3.1944
-2.93927
-2.67912
-2.41419
-2.14475
-1.87106
-1.59341
-1.31208
-1.02739
-0.739642
-0.44916
-0.156253
0.138753
0.435535
0.733821
1.03328
1.33353
1.63424
1.93508
2.23573
2.53587
2.83517
3.13331
3.42999
3.72491
4.01775
4.30825
4.59612
4.8811
5.16292
5.44136
5.71617
5.98714
6.25406
6.51675
6.77501
7.02869
7.27764
7.52171
7.76077
7.99471
8.22341
8.44678
8.66473
8.87718
9.08405
9.2853
9.48086
9.67068
9.8547
10.0329
10.2051
10.3713
10.5313
10.6849
10.8316
10.9716
11.0997
11.233
11.2918
-7.02725
-7.03063
-7.0364
-7.0421
-7.04676
-7.05057
-7.05384
-7.05673
-7.05941
-7.06199
-7.0646
-7.06733
-7.07026
-7.07345
-7.07697
-7.08087
-7.08519
-7.08998
-7.09528
-7.10111
-7.1075
-7.1145
-7.12212
-7.13038
-7.13931
-7.14892
-7.15922
-7.17022
-7.18194
-7.19438
-7.20755
-7.22146
-7.2361
-7.25147
-7.26759
-7.28444
-7.30202
-7.32034
-7.33937
-7.35913
-7.37958
-7.40071
-7.42252
-7.44499
-7.46809
-7.4918
-7.51611
-7.54099
-7.5664
-7.59232
-7.6187
-7.64549
-7.67263
-7.70009
-7.72778
-7.75566
-7.78366
-7.81169
-7.83967
-7.86752
-7.89514
-7.92241
-7.94923
-7.97547
-8.001
-8.0257
-8.04941
-8.072
-8.0933
-8.11316
-8.1314
-8.14786
-8.16235
-8.1747
-8.18471
-8.19219
-8.19695
-8.19879
-8.1975
-8.19289
-8.18474
-8.17286
-8.15703
-8.13706
-8.11273
-8.08386
-8.05023
-8.01165
-7.96794
-7.91892
-7.86439
-7.8042
-7.73817
-7.66615
-7.58798
-7.50355
-7.4127
-7.31532
-7.21131
-7.10056
-6.98299
-6.85854
-6.72713
-6.58873
-6.44331
-6.29084
-6.13133
-5.96479
-5.79124
-5.61073
-5.42331
-5.22906
-5.02807
-4.82045
-4.60633
-4.38583
-4.15912
-3.92636
-3.68772
-3.44342
-3.19365
-2.93865
-2.67864
-2.41387
-2.14461
-1.87112
-1.59367
-1.31258
-1.02813
-0.740644
-0.450422
-0.157782
0.136939
0.433434
0.731448
1.03061
1.33054
1.63094
1.93147
2.23183
2.53166
2.83067
3.12853
3.42492
3.71956
4.01214
4.30238
4.59
4.87474
5.15634
5.43456
5.70916
5.97994
6.24669
6.50921
6.76732
7.02086
7.26968
7.51363
7.75259
7.98644
8.21507
8.43838
8.65629
8.8687
9.07554
9.27676
9.47229
9.66207
9.84602
10.0241
10.1961
10.362
10.5216
10.6746
10.8203
10.9591
11.0855
11.217
11.2724
-7.03124
-7.03439
-7.0398
-7.04528
-7.04984
-7.05362
-7.05688
-7.05979
-7.0625
-7.06512
-7.06778
-7.07057
-7.07355
-7.0768
-7.08038
-7.08433
-7.0887
-7.09353
-7.09887
-7.10474
-7.11118
-7.11821
-7.12586
-7.13415
-7.14309
-7.15272
-7.16303
-7.17405
-7.18579
-7.19825
-7.21145
-7.22539
-7.24007
-7.2555
-7.27167
-7.28859
-7.30625
-7.32464
-7.34376
-7.3636
-7.38415
-7.4054
-7.42733
-7.44992
-7.47317
-7.49705
-7.52153
-7.54659
-7.57219
-7.59829
-7.62485
-7.65181
-7.67912
-7.70672
-7.73456
-7.76256
-7.79067
-7.8188
-7.84687
-7.87478
-7.90244
-7.92974
-7.95655
-7.98276
-8.00824
-8.03286
-8.05647
-8.07892
-8.10006
-8.11973
-8.13776
-8.15398
-8.16821
-8.18028
-8.18998
-8.19714
-8.20156
-8.20304
-8.20138
-8.19638
-8.18783
-8.17554
-8.15929
-8.13889
-8.11414
-8.08483
-8.05077
-8.01176
-7.96762
-7.91817
-7.86323
-7.80262
-7.73618
-7.66377
-7.58523
-7.50043
-7.40923
-7.31152
-7.20718
-7.09613
-6.97828
-6.85356
-6.72191
-6.58329
-6.43766
-6.28502
-6.12535
-5.95867
-5.785
-5.6044
-5.41691
-5.22262
-5.02162
-4.81401
-4.59993
-4.37949
-4.15287
-3.92021
-3.68171
-3.43757
-3.18798
-2.93317
-2.67339
-2.40887
-2.13987
-1.86666
-1.58951
-1.30873
-1.02462
-0.737472
-0.447587
-0.155307
0.139034
0.435173
0.73283
1.0316
1.33112
1.63112
1.93127
2.23124
2.5307
2.82933
3.12682
3.42285
3.71714
4.00938
4.29929
4.58659
4.87102
5.15233
5.43027
5.70461
5.97514
6.24165
6.50395
6.76186
7.01521
7.26386
7.50765
7.74647
7.9802
8.20872
8.43194
8.64977
8.86211
9.06891
9.27008
9.46556
9.65527
9.83913
10.017
10.1889
10.3545
10.5136
10.6659
10.8107
10.9483
11.0731
11.2029
11.2556
-7.03661
-7.0395
-7.04447
-7.04961
-7.05393
-7.05753
-7.06064
-7.06343
-7.06602
-7.06856
-7.07113
-7.07383
-7.07675
-7.07994
-7.08346
-7.08736
-7.09168
-7.09647
-7.10177
-7.10759
-7.11399
-7.12097
-7.12857
-7.13681
-7.14571
-7.15529
-7.16557
-7.17656
-7.18827
-7.20071
-7.21389
-7.22781
-7.2425
-7.25793
-7.27413
-7.29107
-7.30878
-7.32722
-7.3464
-7.36631
-7.38694
-7.40829
-7.43034
-7.45307
-7.47646
-7.50047
-7.52508
-7.55026
-7.57597
-7.60216
-7.6288
-7.65582
-7.68317
-7.71079
-7.73862
-7.76661
-7.79467
-7.82274
-7.85073
-7.87853
-7.90605
-7.93318
-7.9598
-7.9858
-8.01103
-8.03537
-8.05867
-8.0808
-8.10159
-8.12089
-8.13854
-8.15435
-8.16816
-8.17979
-8.18905
-8.19575
-8.1997
-8.2007
-8.19855
-8.19306
-8.18403
-8.17124
-8.1545
-8.13361
-8.10836
-8.07857
-8.04403
-8.00456
-7.95996
-7.91006
-7.85468
-7.79366
-7.72682
-7.65403
-7.57513
-7.48998
-7.39846
-7.30044
-7.19582
-7.08451
-6.96643
-6.84149
-6.70966
-6.57087
-6.42511
-6.27235
-6.1126
-5.94586
-5.77217
-5.59156
-5.40411
-5.20987
-5.00895
-4.80145
-4.5875
-4.36723
-4.1408
-3.90836
-3.6701
-3.42622
-3.17692
-2.92244
-2.66299
-2.39883
-2.13021
-1.85739
-1.58066
-1.30032
-1.01665
-0.729935
-0.440509
-0.148715
0.145141
0.440833
0.738014
1.03626
1.33527
1.63478
1.93444
2.23392
2.5329
2.83105
3.12808
3.42367
3.71751
4.00933
4.29882
4.58572
4.86977
5.15071
5.4283
5.70231
5.97253
6.23874
6.50076
6.75842
7.01153
7.25996
7.50356
7.7422
7.97576
8.20415
8.42725
8.64497
8.85724
9.06396
9.26507
9.46048
9.65011
9.83386
10.0116
10.1832
10.3485
10.5072
10.6588
10.8027
10.9391
11.0624
11.1904
11.2412
-7.0434
-7.046
-7.0505
-7.05519
-7.05914
-7.06239
-7.06516
-7.06763
-7.06994
-7.0722
-7.07454
-7.07703
-7.07975
-7.08277
-7.08613
-7.08988
-7.09408
-7.09874
-7.1039
-7.1096
-7.11586
-7.12272
-7.13018
-7.13829
-7.14707
-7.15652
-7.16668
-7.17755
-7.18914
-7.20148
-7.21457
-7.22842
-7.24302
-7.25838
-7.27451
-7.29141
-7.30907
-7.3275
-7.34668
-7.36661
-7.38726
-7.40863
-7.43069
-7.45343
-7.4768
-7.50079
-7.52536
-7.55048
-7.57609
-7.60217
-7.62867
-7.65553
-7.68269
-7.71011
-7.73771
-7.76546
-7.79326
-7.82105
-7.84872
-7.87618
-7.90333
-7.93005
-7.95624
-7.98177
-8.00653
-8.03037
-8.05316
-8.07475
-8.095
-8.11375
-8.13083
-8.14608
-8.15931
-8.17036
-8.17905
-8.18517
-8.18854
-8.18897
-8.18626
-8.18021
-8.17062
-8.15729
-8.14002
-8.11861
-8.09287
-8.06259
-8.02757
-7.98765
-7.94262
-7.89231
-7.83654
-7.77516
-7.70799
-7.63487
-7.55567
-7.47025
-7.37848
-7.28024
-7.17543
-7.06395
-6.94573
-6.82069
-6.68877
-6.54993
-6.40415
-6.25141
-6.0917