/*--------------------------------*- C++ -*----------------------------------*\
| =========                 |                                                 |
| \\      /  F ield         | OpenFOAM: The Open Source CFD Toolbox           |
|  \\    /   O peration     | Version:  v1906                                 |
|   \\  /    A nd           | Web:      www.OpenFOAM.com                      |
|    \\/     M anipulation  |                                                 |
\*---------------------------------------------------------------------------*/
FoamFile
{
    version     2.0;
    format      ascii;
    class       volVectorField;
    location    "283";
    object      U;
}
// * * * * * * * * * * * * * * * * * * * * * * * * * * * * * * * * * * * * * //

dimensions      [0 1 -1 0 0 0 0];


internalField   nonuniform List<vector> 
12225
(
(9.84026 -0.956928 0)
(9.59659 -0.890303 0)
(9.31634 -0.596465 0)
(9.01457 -0.371729 0)
(8.72553 -0.227359 0)
(8.46697 -0.139076 0)
(8.23983 -0.0853794 0)
(8.04167 -0.0524023 0)
(7.86962 -0.0319978 0)
(7.72061 -0.0191614 0)
(7.59147 -0.0111315 0)
(7.47915 -0.00611596 0)
(7.38143 -0.00305295 0)
(7.29637 -0.00129019 0)
(7.22226 -0.000363852 0)
(7.16009 -0.000700822 0)
(7.10034 0.00246027 0)
(7.07204 -0.0180527 0)
(10.0713 0.254376 0)
(10.1823 0.418426 0)
(10.2289 0.383662 0)
(10.2294 0.310045 0)
(10.2114 0.245429 0)
(10.1794 0.19521 0)
(10.1334 0.157448 0)
(10.0758 0.129476 0)
(10.0105 0.108682 0)
(9.94088 0.0929354 0)
(9.86927 0.0807798 0)
(9.79745 0.0711813 0)
(9.72651 0.0634 0)
(9.65757 0.0569599 0)
(9.59104 0.0512186 0)
(9.52787 0.0466365 0)
(9.46857 0.0401602 0)
(9.4153 0.0403251 0)
(10.0041 0.0591976 0)
(10.0285 0.0487305 0)
(10.0619 0.0103599 0)
(10.0897 0.000321392 0)
(10.1152 0.00844565 0)
(10.1377 0.0196575 0)
(10.1547 0.0292081 0)
(10.1657 0.036658 0)
(10.1715 0.0421902 0)
(10.173 0.0460275 0)
(10.1711 0.0484695 0)
(10.1663 0.0498221 0)
(10.1591 0.050319 0)
(10.1502 0.0501101 0)
(10.1401 0.0492331 0)
(10.1291 0.0476902 0)
(10.1183 0.0452152 0)
(10.1062 0.0404392 0)
(9.99764 0.0109379 0)
(10.0088 0.0257986 0)
(10.0342 0.0385843 0)
(10.0554 0.0535943 0)
(10.0721 0.0650775 0)
(10.0875 0.0703998 0)
(10.1015 0.0715366 0)
(10.1134 0.0707663 0)
(10.1236 0.0691741 0)
(10.1326 0.067193 0)
(10.1404 0.0650133 0)
(10.1473 0.0627606 0)
(10.1532 0.0604559 0)
(10.1585 0.058079 0)
(10.1632 0.0554948 0)
(10.1674 0.0525639 0)
(10.1713 0.0488084 0)
(10.1742 0.0431243 0)
(9.99927 0.0074093 0)
(10.0087 0.0338046 0)
(10.0279 0.048374 0)
(10.0436 0.0549455 0)
(10.0558 0.0584094 0)
(10.0678 0.059592 0)
(10.0793 0.0593598 0)
(10.0897 0.0586139 0)
(10.0991 0.0577165 0)
(10.1077 0.0567055 0)
(10.1157 0.0555692 0)
(10.1232 0.0543033 0)
(10.1302 0.0528854 0)
(10.1369 0.0512589 0)
(10.1434 0.0493065 0)
(10.1495 0.0468713 0)
(10.1553 0.043635 0)
(10.1605 0.0392896 0)
(10.0003 0.00955537 0)
(10.0085 0.0330142 0)
(10.0235 0.0439935 0)
(10.0369 0.0483784 0)
(10.0477 0.0518642 0)
(10.0585 0.0542725 0)
(10.069 0.0553095 0)
(10.0785 0.0554742 0)
(10.0871 0.0551615 0)
(10.0951 0.0545042 0)
(10.1026 0.053555 0)
(10.1097 0.052357 0)
(10.1165 0.0509219 0)
(10.1231 0.0492204 0)
(10.1294 0.0471688 0)
(10.1354 0.0446482 0)
(10.1411 0.0414934 0)
(10.1462 0.0375812 0)
(10.0004 0.00934702 0)
(10.0074 0.0285633 0)
(10.02 0.0388054 0)
(10.0322 0.0439765 0)
(10.0425 0.0481104 0)
(10.0525 0.0509273 0)
(10.0622 0.0521808 0)
(10.0711 0.0524195 0)
(10.0793 0.0521098 0)
(10.0868 0.0514279 0)
(10.094 0.0504433 0)
(10.1008 0.0492015 0)
(10.1074 0.0477187 0)
(10.1136 0.045969 0)
(10.1196 0.0438901 0)
(10.1253 0.0413956 0)
(10.1306 0.0383981 0)
(10.1354 0.0348586 0)
(10.0004 0.0082875 0)
(10.0063 0.0246724 0)
(10.0171 0.0348188 0)
(10.0283 0.0404792 0)
(10.0381 0.0445827 0)
(10.0475 0.0473094 0)
(10.0566 0.0485977 0)
(10.0652 0.0489187 0)
(10.073 0.0486874 0)
(10.0804 0.0480714 0)
(10.0873 0.047139 0)
(10.0939 0.0459329 0)
(10.1002 0.0444717 0)
(10.1062 0.0427384 0)
(10.1119 0.0406928 0)
(10.1173 0.0382815 0)
(10.1223 0.0354686 0)
(10.1267 0.0322708 0)
(10.0004 0.00729514 0)
(10.0053 0.0215624 0)
(10.0146 0.0312342 0)
(10.0248 0.0369124 0)
(10.034 0.0408246 0)
(10.0429 0.0434621 0)
(10.0516 0.0448334 0)
(10.0598 0.0452796 0)
(10.0675 0.0451503 0)
(10.0746 0.0446114 0)
(10.0814 0.0437363 0)
(10.0878 0.0425702 0)
(10.0939 0.0411377 0)
(10.0997 0.0394346 0)
(10.1052 0.0374416 0)
(10.1103 0.0351343 0)
(10.115 0.0325102 0)
(10.1192 0.0296153 0)
(10.0004 0.00642301 0)
(10.0046 0.0188202 0)
(10.0125 0.0277378 0)
(10.0216 0.0332679 0)
(10.0303 0.0370204 0)
(10.0387 0.0395788 0)
(10.0469 0.041001 0)
(10.0548 0.0415364 0)
(10.0622 0.041482 0)
(10.0692 0.0410035 0)
(10.0758 0.0401791 0)
(10.082 0.0390562 0)
(10.088 0.0376649 0)
(10.0936 0.0360129 0)
(10.0989 0.0340978 0)
(10.1038 0.0319178 0)
(10.1083 0.0294891 0)
(10.1123 0.026871 0)
(10.0004 0.00561574 0)
(10.0039 0.0163267 0)
(10.0107 0.0243924 0)
(10.0189 0.0296719 0)
(10.0269 0.0332478 0)
(10.0348 0.0356859 0)
(10.0426 0.0370972 0)
(10.0501 0.0376765 0)
(10.0573 0.0376715 0)
(10.064 0.0372402 0)
(10.0704 0.0364628 0)
(10.0765 0.0353886 0)
(10.0823 0.0340512 0)
(10.0877 0.0324685 0)
(10.0928 0.0306513 0)
(10.0975 0.0286131 0)
(10.1018 0.0263804 0)
(10.1057 0.0240164 0)
(10.0003 0.00490142 0)
(10.0034 0.0142135 0)
(10.0093 0.0214743 0)
(10.0167 0.0264332 0)
(10.0242 0.0298059 0)
(10.0316 0.0320982 0)
(10.039 0.0334571 0)
(10.0461 0.0340441 0)
(10.053 0.0340651 0)
(10.0595 0.0336659 0)
(10.0657 0.0329271 0)
(10.0716 0.0318991 0)
(10.0772 0.0306185 0)
(10.0825 0.0291105 0)
(10.0874 0.0273947 0)
(10.0919 0.0254935 0)
(10.0961 0.0234377 0)
(10.0999 0.02129 0)
(10.0003 0.00423677 0)
(10.003 0.0122837 0)
(10.0082 0.0187178 0)
(10.0148 0.0232727 0)
(10.0217 0.0264035 0)
(10.0287 0.0285264 0)
(10.0357 0.0298029 0)
(10.0425 0.0303718 0)
(10.0491 0.0304026 0)
(10.0554 0.0300264 0)
(10.0614 0.0293221 0)
(10.0671 0.0283408 0)
(10.0725 0.0271215 0)
(10.0775 0.0256942 0)
(10.0823 0.0240846 0)
(10.0866 0.0223204 0)
(10.0907 0.0204333 0)
(10.0943 0.0184847 0)
(10.0003 0.00354474 0)
(10.0026 0.0102674 0)
(10.0071 0.0157568 0)
(10.0129 0.019771 0)
(10.0193 0.0225668 0)
(10.0258 0.0244567 0)
(10.0323 0.0255982 0)
(10.0387 0.0261108 0)
(10.045 0.0261289 0)
(10.051 0.0257647 0)
(10.0567 0.0250927 0)
(10.0622 0.024164 0)
(10.0674 0.0230181 0)
(10.0723 0.021688 0)
(10.0768 0.0202032 0)
(10.081 0.018594 0)
(10.0849 0.0168907 0)
(10.0884 0.015151 0)
(10.0002 0.00282189 0)
(10.0022 0.00816487 0)
(10.0061 0.0126027 0)
(10.0112 0.015936 0)
(10.0169 0.0182853 0)
(10.0229 0.0198625 0)
(10.029 0.0208039 0)
(10.035 0.0212099 0)
(10.0409 0.0211827 0)
(10.0466 0.0208132 0)
(10.0521 0.0201681 0)
(10.0573 0.0192956 0)
(10.0622 0.018234 0)
(10.0669 0.0170167 0)
(10.0712 0.0156737 0)
(10.0752 0.0142352 0)
(10.0789 0.0127281 0)
(10.0824 0.0112041 0)
(10.0002 0.00206855 0)
(10.0019 0.00598095 0)
(10.0052 0.00926685 0)
(10.0097 0.0117769 0)
(10.0148 0.0135517 0)
(10.0203 0.0147191 0)
(10.0258 0.0153816 0)
(10.0314 0.0156172 0)
(10.037 0.0155001 0)
(10.0424 0.0150989 0)
(10.0475 0.0144684 0)
(10.0525 0.0136504 0)
(10.0572 0.0126795 0)
(10.0616 0.0115859 0)
(10.0657 0.0103973 0)
(10.0696 0.00914044 0)
(10.0732 0.00783745 0)
(10.0765 0.0065328 0)
(10.0002 0.00128312 0)
(10.0016 0.00370409 0)
(10.0045 0.00573594 0)
(10.0084 0.00728068 0)
(10.013 0.00834265 0)
(10.018 0.0089878 0)
(10.0231 0.00927976 0)
(10.0283 0.00927053 0)
(10.0335 0.00900869 0)
(10.0386 0.00854008 0)
(10.0435 0.00790379 0)
(10.0482 0.00713171 0)
(10.0526 0.00625079 0)
(10.0568 0.00528508 0)
(10.0608 0.00425647 0)
(10.0645 0.00318585 0)
(10.0679 0.00208935 0)
(10.0712 0.00100311 0)
(10.0002 0.000450099 0)
(10.0014 0.00128348 0)
(10.004 0.00193811 0)
(10.0075 0.0023674 0)
(10.0117 0.0025672 0)
(10.0163 0.00256179 0)
(10.0211 0.00237709 0)
(10.026 0.00203675 0)
(10.0309 0.00156425 0)
(10.0357 0.000982346 0)
(10.0404 0.000311225 0)
(10.0448 -0.000431636 0)
(10.0491 -0.00123059 0)
(10.0531 -0.00207108 0)
(10.0569 -0.00293958 0)
(10.0605 -0.00382296 0)
(10.0639 -0.00471191 0)
(10.067 -0.00557919 0)
(10.0001 -0.000473603 0)
(10.0014 -0.00140423 0)
(10.0038 -0.00230399 0)
(10.0072 -0.00316329 0)
(10.0112 -0.00398 0)
(10.0156 -0.00476444 0)
(10.0202 -0.00553069 0)
(10.025 -0.00628623 0)
(10.0297 -0.00703367 0)
(10.0343 -0.00777495 0)
(10.0389 -0.00851192 0)
(10.0432 -0.00924522 0)
(10.0473 -0.00997408 0)
(10.0513 -0.0106966 0)
(10.055 -0.0114103 0)
(10.0585 -0.0121116 0)
(10.0618 -0.012799 0)
(10.0649 -0.0134553 0)
(10.0002 -0.00134825 0)
(10.0014 -0.0039587 0)
(10.004 -0.00634911 0)
(10.0075 -0.00843651 0)
(10.0117 -0.0102086 0)
(10.0163 -0.0117196 0)
(10.021 -0.0130255 0)
(10.0259 -0.0141608 0)
(10.0307 -0.0151535 0)
(10.0354 -0.0160328 0)
(10.0399 -0.0168238 0)
(10.0443 -0.0175447 0)
(10.0484 -0.0182085 0)
(10.0524 -0.018825 0)
(10.0561 -0.0194017 0)
(10.0596 -0.0199434 0)
(10.0629 -0.0204551 0)
(10.066 -0.0209277 0)
(10.0002 -0.00208975 0)
(10.0016 -0.00615923 0)
(10.0044 -0.00984931 0)
(10.0083 -0.0129429 0)
(10.0129 -0.0154453 0)
(10.0177 -0.0175061 0)
(10.0227 -0.0192232 0)
(10.0278 -0.0206361 0)
(10.0328 -0.0217899 0)
(10.0376 -0.0227421 0)
(10.0423 -0.0235419 0)
(10.0467 -0.0242237 0)
(10.051 -0.0248129 0)
(10.055 -0.0253295 0)
(10.0587 -0.0257886 0)
(10.0623 -0.0262014 0)
(10.0656 -0.0265769 0)
(10.0688 -0.0269121 0)
(10.0002 -0.00277575 0)
(10.0017 -0.00829878 0)
(10.0049 -0.0133163 0)
(10.0094 -0.0173249 0)
(10.0145 -0.0204011 0)
(10.0198 -0.0228755 0)
(10.0251 -0.0249007 0)
(10.0305 -0.0265166 0)
(10.0357 -0.0277837 0)
(10.0408 -0.0287803 0)
(10.0456 -0.0295686 0)
(10.0502 -0.0301936 0)
(10.0546 -0.0306917 0)
(10.0586 -0.0310935 0)
(10.0625 -0.0314225 0)
(10.0661 -0.0316955 0)
(10.0694 -0.0319253 0)
(10.0726 -0.032112 0)
(10.0001 -0.00338829 0)
(10.0017 -0.0104133 0)
(10.0055 -0.0167634 0)
(10.0109 -0.0215998 0)
(10.0166 -0.0252213 0)
(10.0223 -0.0280794 0)
(10.028 -0.0303012 0)
(10.0337 -0.0319707 0)
(10.0392 -0.0332318 0)
(10.0445 -0.0342024 0)
(10.0496 -0.0349479 0)
(10.0543 -0.0355126 0)
(10.0588 -0.035937 0)
(10.063 -0.0362565 0)
(10.0669 -0.0364975 0)
(10.0706 -0.0366787 0)
(10.074 -0.0368149 0)
(10.0772 -0.0369121 0)
(10.0001 -0.00388719 0)
(10.0017 -0.0128955 0)
(10.0061 -0.0202959 0)
(10.0124 -0.025356 0)
(10.0188 -0.0294174 0)
(10.025 -0.0328817 0)
(10.0312 -0.0354822 0)
(10.0373 -0.0372491 0)
(10.0431 -0.038448 0)
(10.0486 -0.03928 0)
(10.0538 -0.0398429 0)
(10.0587 -0.0402021 0)
(10.0633 -0.0404161 0)
(10.0676 -0.0405331 0)
(10.0716 -0.0405854 0)
(10.0754 -0.040595 0)
(10.0789 -0.040575 0)
(10.0821 -0.0405226 0)
(9.99983 -0.00358675 0)
(10.0013 -0.0164912 0)
(10.007 -0.0254716 0)
(10.0141 -0.029658 0)
(10.0207 -0.0329913 0)
(10.0273 -0.0364507 0)
(10.0342 -0.0393844 0)
(10.0409 -0.041561 0)
(10.0473 -0.0431407 0)
(10.0532 -0.0442707 0)
(10.0588 -0.0450316 0)
(10.064 -0.0454981 0)
(10.0689 -0.0457471 0)
(10.0734 -0.0458433 0)
(10.0776 -0.0458341 0)
(10.0815 -0.0457531 0)
(10.0852 -0.0456259 0)
(10.0886 -0.0454629 0)
(9.99835 -7.73311e-05 0)
(9.99822 -0.0174492 0)
(10.0068 -0.0314597 0)
(10.0162 -0.0375702 0)
(10.0234 -0.0402775 0)
(10.0303 -0.0418317 0)
(10.0379 -0.0427874 0)
(10.0455 -0.0434806 0)
(10.0527 -0.0440783 0)
(10.0594 -0.0445889 0)
(10.0657 -0.0449792 0)
(10.0716 -0.045261 0)
(10.0771 -0.0454563 0)
(10.0821 -0.0455931 0)
(10.0868 -0.0456857 0)
(10.0911 -0.0457505 0)
(10.0951 -0.0457925 0)
(10.0987 -0.0457801 0)
(9.99422 0.00249353 0)
(9.9901 -0.00742852 0)
(10.0032 -0.0229258 0)
(10.0185 -0.0397293 0)
(10.0302 -0.0531074 0)
(10.0404 -0.0608729 0)
(10.0501 -0.0644019 0)
(10.0593 -0.0656439 0)
(10.0678 -0.065726 0)
(10.0756 -0.0650958 0)
(10.083 -0.0640357 0)
(10.0897 -0.0627353 0)
(10.0959 -0.0613576 0)
(10.1016 -0.059983 0)
(10.1067 -0.0586766 0)
(10.1114 -0.0574675 0)
(10.1157 -0.0563816 0)
(10.1196 -0.0553713 0)
(9.99443 -0.0305958 0)
(9.99463 -0.0135126 0)
(10.0087 0.0213846 0)
(10.0272 0.0319181 0)
(10.047 0.0240545 0)
(10.0668 0.0115313 0)
(10.085 -0.000173067 0)
(10.1007 -0.0103774 0)
(10.114 -0.0190075 0)
(10.1251 -0.0260718 0)
(10.1344 -0.0316649 0)
(10.1418 -0.0360294 0)
(10.1476 -0.0393965 0)
(10.152 -0.0419836 0)
(10.155 -0.0439539 0)
(10.1569 -0.0454768 0)
(10.1579 -0.0466815 0)
(10.1579 -0.0477132 0)
(10.0367 -0.208939 0)
(10.107 -0.36601 0)
(10.1425 -0.352639 0)
(10.1567 -0.297972 0)
(10.1697 -0.247577 0)
(10.182 -0.206752 0)
(10.1884 -0.174318 0)
(10.1867 -0.148955 0)
(10.1774 -0.129239 0)
(10.1619 -0.113715 0)
(10.1414 -0.101318 0)
(10.1169 -0.0912887 0)
(10.0894 -0.0830952 0)
(10.0598 -0.0763321 0)
(10.0288 -0.0707187 0)
(9.99693 -0.066075 0)
(9.96472 -0.062251 0)
(9.93284 -0.0595481 0)
(9.92843 0.765812 0)
(9.84047 0.742588 0)
(9.705 0.524938 0)
(9.52633 0.349226 0)
(9.3318 0.228041 0)
(9.1406 0.147288 0)
(8.9588 0.0938347 0)
(8.78891 0.0582017 0)
(8.63232 0.0343038 0)
(8.48966 0.0182595 0)
(8.36031 0.0075722 0)
(8.24345 0.000575356 0)
(8.13792 -0.00398807 0)
(8.04264 -0.00685462 0)
(7.9565 -0.00854328 0)
(7.87853 -0.0094902 0)
(7.80737 -0.00997956 0)
(7.74265 -0.0105979 0)
(0.00227513 -0.00402403 -8.47054e-19)
(0.0103692 -0.0112517 7.43021e-19)
(0.0215513 -0.0159348 0)
(0.033839 -0.0174178 0)
(0.0450786 -0.0163538 0)
(0.0543084 -0.0137857 -4.17529e-19)
(0.0611807 -0.0105577 0)
(0.0656383 -0.00719306 0)
(0.06782 -0.00398381 0)
(0.0678312 -0.00112675 0)
(0.065964 0.00121343 3.74297e-19)
(0.0626524 0.00298286 0)
(0.0581927 0.00426627 0)
(0.0528053 0.00522026 0)
(0.0466278 0.00600993 0)
(0.0397072 0.00677573 4.1039e-19)
(0.0320198 0.00762302 0)
(0.0234986 0.00861738 0)
(0.0140486 0.00976249 0)
(0.00354362 0.0109567 0)
(-0.00813428 0.0120192 0)
(-0.0211542 0.0129698 0)
(-0.0356904 0.0139737 0)
(-0.0518847 0.0151184 3.43908e-19)
(-0.0698831 0.0164399 -3.12029e-19)
(-0.0898209 0.0179528 2.83216e-19)
(-0.111811 0.0196563 2.57243e-19)
(-0.135937 0.0215308 0)
(-0.162247 0.0235306 0)
(-0.190738 0.0255817 -1.94356e-19)
(-0.221336 0.0275963 -1.77814e-19)
(-0.253941 0.0295213 0)
(-0.288411 0.0313144 0)
(-0.324579 0.0329386 -1.38856e-19)
(-0.36226 0.0343637 0)
(-0.401255 0.0355695 0)
(-0.44136 0.0365465 1.12047e-19)
(-0.48237 0.0372939 0)
(-0.524089 0.0378192 9.8909e-20)
(-0.566337 0.0381363 1.86825e-19)
(-0.608949 0.0382631 0)
(-0.651776 0.0382199 0)
(-0.694688 0.0380286 0)
(-0.737576 0.0377131 0)
(-0.780361 0.0373012 0)
(-0.822982 0.0368274 1.4106e-19)
(-0.865381 0.0363327 1.35772e-19)
(-0.9075 0.0358544 1.30921e-19)
(-0.949397 0.0354068 0)
(-0.991094 0.0349791 -1.22358e-19)
(-1.03259 0.0345671 0)
(-1.0739 0.0341692 1.15048e-19)
(-1.11503 0.0337838 1.11778e-19)
(-1.15599 0.0334096 0)
(-1.19679 0.0330453 0)
(-1.23741 0.0326891 0)
(-1.27788 0.0323394 1.00685e-19)
(-1.31819 0.031994 0)
(-1.35833 0.0316508 0)
(-1.3983 0.0313074 0)
(-1.4381 0.0309617 0)
(-1.4777 0.0306112 0)
(-1.5171 0.0302538 0)
(-1.55629 0.0298873 0)
(-1.59523 0.0295098 0)
(-1.63392 0.0291191 -8.32801e-20)
(-1.67232 0.0287137 0)
(-1.7104 0.028292 0)
(-1.74815 0.0278525 7.89238e-20)
(-1.78553 0.027394 7.7582e-20)
(-1.8225 0.0269153 0)
(-1.85903 0.0264156 -7.5039e-20)
(-1.89508 0.0258941 7.38305e-20)
(-1.93062 0.0253502 0)
(-1.96561 0.0247834 -7.15228e-20)
(-2 0.0241934 0)
(-2.03376 0.0235803 0)
(-2.06684 0.0229439 6.829e-20)
(-2.0992 0.0222845 0)
(-2.13079 0.021602 -6.62562e-20)
(-2.16158 0.020897 0)
(-2.19151 0.0201697 6.42967e-20)
(-2.22055 0.0194207 6.33392e-20)
(-2.24865 0.0186504 6.23938e-20)
(-2.27577 0.0178596 1.22917e-19)
(-2.30186 0.0170486 -1.21062e-19)
(-2.32688 0.0162183 0)
(-2.35079 0.0153687 0)
(-2.37354 0.0145002 0)
(-2.39509 0.0136123 -1.1373e-19)
(-2.41541 0.0127044 -1.11902e-19)
(-2.43444 0.0117748 1.10068e-19)
(-2.45215 0.0108211 0)
(-2.46849 0.00983937 -1.06374e-19)
(-2.4834 0.00882366 -1.04508e-19)
(-2.49685 0.00776607 -1.02627e-19)
(-2.50876 0.00665655 0)
(-2.51906 0.00548467 0)
(-2.52768 0.00424772 0)
(-2.53455 0.00296918 -9.49127e-20)
(-2.53955 0.00171507 0)
(-2.54256 0.000574042 0)
(-2.54366 -0.000409468 8.88409e-20)
(-2.54326 -0.00130157 0)
(-2.54129 -0.0021736 0)
(-2.53779 -0.0030359 8.23285e-20)
(-2.53273 -0.00389373 0)
(-2.52613 -0.00474769 0)
(-2.51795 -0.00559741 -7.53359e-20)
(-2.50821 -0.00644253 -7.28856e-20)
(-2.49688 -0.00728207 0)
(-2.48397 -0.00811559 6.77902e-20)
(-2.46947 -0.00894198 0)
(-2.45339 -0.00976087 -6.24166e-20)
(-2.43571 -0.0105712 0)
(-2.41645 -0.0113726 -5.67426e-20)
(-2.3956 -0.012164 -5.37855e-20)
(-2.37318 -0.0129452 0)
(-2.3492 -0.0137152 0)
(-2.32365 -0.0144739 0)
(-2.29657 -0.0152205 0)
(-2.26795 -0.0159545 0)
(-2.23783 -0.016675 0)
(-2.2062 -0.0173814 0)
(-2.1731 -0.0180729 -2.68114e-20)
(-2.13855 -0.0187495 2.29686e-20)
(-2.10256 -0.0194104 0)
(-2.06517 -0.0200562 0)
(-2.0264 -0.0206863 0)
(-1.98629 -0.0213016 0)
(-1.94486 -0.021902 3.72629e-21)
(-1.90214 -0.0224879 0)
(-1.85817 -0.0230568 1.51416e-20)
(-1.81297 -0.0236097 -2.50559e-20)
(-1.76659 -0.0241455 0)
(-1.71906 -0.0246653 0)
(-1.67043 -0.0251719 0)
(-1.62073 -0.0256625 6.83104e-20)
(-1.57001 -0.0261356 8.01208e-20)
(-1.5183 -0.0265931 0)
(-1.46567 -0.0270342 1.051e-19)
(-1.41214 -0.0274597 1.18323e-19)
(-1.35777 -0.0278697 -1.32073e-19)
(-1.30261 -0.0282645 0)
(-1.24669 -0.0286444 0)
(-1.19008 -0.0290098 -1.76843e-19)
(-1.13281 -0.0293613 0)
(-1.07494 -0.0296992 0)
(-1.01651 -0.0300243 0)
(-0.957572 -0.0303371 0)
(-0.898169 -0.0306387 2.65812e-19)
(-0.838348 -0.0309296 2.86258e-19)
(-0.778155 -0.0312111 0)
(-0.717634 -0.031484 3.30384e-19)
(-0.656827 -0.0317498 0)
(-0.595777 -0.0320095 0)
(-0.534523 -0.0322648 4.06123e-19)
(-0.473104 -0.0325169 0)
(-0.411555 -0.0327672 4.64426e-19)
(-0.349913 -0.0330158 0)
(-0.288212 -0.033264 0)
(-0.226489 -0.0335147 5.66988e-19)
(-0.164775 -0.0337869 0)
(-0.103101 -0.0340819 6.48232e-19)
(-0.0415375 -0.0343249 0)
(0.0199035 -0.0340464 0)
(0.0812073 -0.0331883 0)
(0.14235 -0.0322507 -6.81552e-19)
(0.203281 -0.0313591 0)
(0.263977 -0.0305148 6.51457e-19)
(0.32443 -0.0297062 0)
(0.384619 -0.0289178 0)
(0.444486 -0.0281288 0)
(0.503909 -0.0273072 0)
(0.562706 -0.0263955 0)
(0.620301 -0.0252837 0)
(0.676416 -0.0237137 0)
(0.726495 -0.0210493 -1.13871e-18)
(0.775989 -0.0159773 0)
(0.775824 0.000717077 0)
(0.00523692 -0.0221483 2.07055e-18)
(0.0164452 -0.0358105 -1.2813e-18)
(0.0251733 -0.0370071 0)
(0.0312623 -0.033233 4.05661e-19)
(0.0351047 -0.0272438 0)
(0.0368941 -0.0203162 1.5568e-19)
(0.0368598 -0.013217 -2.93972e-19)
(0.0351841 -0.00641241 -2.84598e-19)
(0.0319888 -0.000169188 0)
(0.0274067 0.0053465 -2.75522e-19)
(0.0214612 0.0100443 -1.37211e-19)
(0.0141119 0.0139572 0)
(0.00534951 0.0172399 0)
(-0.00484083 0.0201007 0)
(-0.0164816 0.0227596 0)
(-0.0296065 0.0254095 -1.25949e-19)
(-0.0442687 0.028193 0)
(-0.0605461 0.0312001 2.33002e-19)
(-0.0785423 0.0344741 0)
(-0.0983645 0.03803 0)
(-0.120071 0.0418611 -2.06587e-19)
(-0.14369 0.0459592 0)
(-0.169275 0.0503261 1.90171e-19)
(-0.19687 0.0549412 -9.11775e-20)
(-0.226464 0.0597473 8.72003e-20)
(-0.258 0.0646552 -8.32838e-20)
(-0.291372 0.0695541 -7.94458e-20)
(-0.326431 0.0743267 0)
(-0.36299 0.0788688 0)
(-0.400833 0.0831038 6.85533e-20)
(-0.439766 0.0869576 -6.50376e-20)
(-0.479592 0.0903563 0)
(-0.52011 0.0932572 0)
(-0.561128 0.0956423 5.65111e-20)
(-0.602467 0.0975115 0)
(-0.643962 0.0988667 0)
(-0.685471 0.0997314 -4.95686e-20)
(-0.726877 0.100149 0)
(-0.768086 0.10017 4.56673e-20)
(-0.80903 0.0998471 -8.82759e-20)
(-0.849658 0.0992348 0)
(-0.889939 0.0983854 0)
(-0.929858 0.0973483 -1.59309e-19)
(-0.969412 0.0961683 -1.54489e-19)
(-1.00861 0.0948866 -1.50027e-19)
(-1.04747 0.0935441 7.28152e-20)
(-1.08602 0.092184 -7.11484e-20)
(-1.12427 0.0908465 -2.07794e-19)
(-1.16222 0.0895522 1.35072e-19)
(-1.19988 0.0883004 6.6089e-20)
(-1.23725 0.087087 0)
(-1.27435 0.0859084 -6.3195e-20)
(-1.31118 0.0847608 6.15879e-20)
(-1.34775 0.0836399 0)
(-1.38406 0.0825412 0)
(-1.42012 0.0814598 0)
(-1.45592 0.0803908 -5.71829e-20)
(-1.49147 0.0793289 0)
(-1.52675 0.0782692 1.10021e-19)
(-1.56176 0.0772062 0)
(-1.59648 0.0761351 1.06287e-19)
(-1.63091 0.0750508 0)
(-1.66502 0.0739488 -1.02832e-19)
(-1.6988 0.0728246 0)
(-1.73224 0.0716743 9.96141e-20)
(-1.7653 0.0704942 -4.89074e-20)
(-1.79796 0.069281 0)
(-1.83021 0.0680318 -9.51561e-20)
(-1.862 0.0667442 -4.70051e-20)
(-1.89333 0.0654158 -4.63194e-20)
(-1.92414 0.064045 0)
(-1.95443 0.0626303 -4.47521e-20)
(-1.98414 0.0611706 -4.43535e-20)
(-2.01326 0.059665 0)
(-2.04175 0.0581133 4.3105e-20)
(-2.06957 0.0565152 -8.4772e-20)
(-2.09669 0.0548712 0)
(-2.12308 0.0531814 -4.13001e-20)
(-2.14871 0.0514468 0)
(-2.17353 0.049668 1.20196e-19)
(-2.19751 0.0478464 0)
(-2.22062 0.0459832 -1.16744e-19)
(-2.24282 0.0440798 -3.83976e-20)
(-2.26408 0.0421375 3.76683e-20)
(-2.28437 0.0401585 7.42077e-20)
(-2.30364 0.0381442 -7.30776e-20)
(-2.32187 0.0360967 0)
(-2.33902 0.0340177 0)
(-2.35505 0.0319089 0)
(-2.36995 0.0297718 2.05911e-19)
(-2.38367 0.0276073 6.75164e-20)
(-2.39618 0.0254165 -6.63214e-20)
(-2.40746 0.0232001 0)
(-2.41748 0.0209581 -6.37969e-20)
(-2.42621 0.0186902 6.26543e-20)
(-2.43363 0.0163956 6.14004e-20)
(-2.43974 0.0140724 0)
(-2.44452 0.0117157 0)
(-2.448 0.00931857 0)
(-2.45022 0.00688397 5.62056e-20)
(-2.45125 0.0044492 0)
(-2.4512 0.00209275 -1.07038e-19)
(-2.45006 -0.000123695 -1.56271e-19)
(-2.44749 -0.00224186 1.01361e-19)
(-2.44344 -0.0043227 0)
(-2.43789 -0.00637734 4.78496e-20)
(-2.43083 -0.00841157 0)
(-2.42223 -0.0104256 8.9426e-20)
(-2.41209 -0.0124181 -4.32989e-20)
(-2.40039 -0.0143873 -4.17279e-20)
(-2.38714 -0.0163311 0)
(-2.37232 -0.0182474 -1.14763e-19)
(-2.35594 -0.020134 7.32914e-20)
(-2.33799 -0.0219891 3.4733e-20)
(-2.31847 -0.0238104 0)
(-2.29738 -0.0255963 3.12164e-20)
(-2.27473 -0.0273447 8.8746e-20)
(-2.25053 -0.029054 0)
(-2.22478 -0.0307223 5.19883e-20)
(-2.1975 -0.0323485 4.82227e-20)
(-2.16869 -0.033931 4.43946e-20)
(-2.13837 -0.0354686 0)
(-2.10656 -0.0369591 0)
(-2.07327 -0.038401 0)
(-2.03852 -0.0397924 -1.45819e-20)
(-2.00234 -0.0411324 -1.17845e-20)
(-1.96474 -0.0424194 0)
(-1.92575 -0.0436533 -1.5825e-20)
(-1.88541 -0.0448331 -1.14887e-20)
(-1.84373 -0.0459592 0)
(-1.80075 -0.0470316 -1.77564e-21)
(-1.75651 -0.0480508 3.80656e-21)
(-1.71102 -0.0490167 -7.38473e-21)
(-1.66432 -0.0499304 -1.02412e-20)
(-1.61646 -0.0507865 0)
(-1.56746 -0.0515804 0)
(-1.51738 -0.0523179 0)
(-1.46624 -0.0530043 -3.13971e-20)
(-1.41409 -0.0536355 3.43928e-20)
(-1.36097 -0.054209 8.08612e-20)
(-1.30693 -0.054726 -4.65632e-20)
(-1.25201 -0.0551877 4.96584e-20)
(-1.19626 -0.0555949 5.699e-20)
(-1.13973 -0.0559485 0)
(-1.08246 -0.0562494 0)
(-1.02451 -0.0564988 -7.09155e-20)
(-0.965905 -0.0566979 0)
(-0.906711 -0.0568483 0)
(-0.84697 -0.0569513 1.77311e-19)
(-0.786731 -0.0570088 0)
(-0.726039 -0.0570227 9.89278e-20)
(-0.664942 -0.0569951 -1.07012e-19)
(-0.603485 -0.056928 0)
(-0.541712 -0.056824 1.16492e-19)
(-0.479666 -0.0566852 0)
(-0.417388 -0.0565146 0)
(-0.354919 -0.0563144 -1.36946e-19)
(-0.292297 -0.0560872 2.83879e-19)
(-0.229557 -0.0558353 -1.49332e-19)
(-0.166736 -0.05556 0)
(-0.103866 -0.0552616 0)
(-0.0409832 -0.0549421 1.65991e-19)
(0.0218975 -0.0546013 0)
(0.0847536 -0.0542388 1.72657e-19)
(0.147578 -0.0538485 0)
(0.21033 -0.0532869 0)
(0.272897 -0.0525071 0)
(0.335266 -0.0516646 1.82421e-19)
(0.397462 -0.0508314 0)
(0.459474 -0.0500158 -1.85945e-19)
(0.521284 -0.0492065 0)
(0.582857 -0.048383 0)
(0.644129 -0.0475113 3.79105e-19)
(0.704979 -0.0465354 -3.81811e-19)
(0.765215 -0.0453482 0)
(0.824363 -0.043749 0)
(0.88205 -0.0412416 0)
(0.935492 -0.0368891 1.18118e-18)
(0.98776 -0.0276949 0)
(1.0173 -0.00530971 -8.20551e-19)
(0.0048778 -0.0435529 -3.41347e-22)
(0.0118876 -0.053643 1.31704e-18)
(0.0149938 -0.0467396 0)
(0.0154877 -0.0367668 -5.71677e-19)
(0.0140377 -0.0262847 0)
(0.010941 -0.0159277 0)
(0.00643975 -0.00599367 3.1491e-23)
(0.000664193 0.00332714 1.82391e-19)
(-0.00633992 0.0119228 1.73881e-19)
(-0.0145876 0.0197591 1.67034e-19)
(-0.024129 0.026862 0)
(-0.0350387 0.0333096 0)
(-0.0474003 0.0392358 -1.52283e-19)
(-0.0612928 0.0448185 -2.95896e-19)
(-0.0767827 0.0502505 2.87291e-19)
(-0.0939225 0.0557094 0)
(-0.112753 0.0613369 2.70223e-19)
(-0.133306 0.0672272 -1.31022e-19)
(-0.155605 0.0734272 0)
(-0.179662 0.0799431 2.45568e-19)
(-0.205458 0.0867622 1.18892e-19)
(-0.232933 0.0938404 -2.2954e-19)
(-0.261995 0.101094 -1.10853e-19)
(-0.29252 0.108414 0)
(-0.324353 0.115672 2.05435e-19)
(-0.357315 0.122727 1.97531e-19)
(-0.391212 0.129439 0)
(-0.425852 0.135674 1.82283e-19)
(-0.46105 0.14132 0)
(-0.496639 0.146292 1.68251e-19)
(-0.532467 0.150539 8.09319e-20)
(-0.568391 0.154029 0)
(-0.6043 0.156754 0)
(-0.640108 0.158723 0)
(-0.675738 0.159974 0)
(-0.711137 0.160566 0)
(-0.746287 0.160566 0)
(-0.78118 0.160049 1.25096e-19)
(-0.81582 0.159092 -1.81648e-19)
(-0.850214 0.157771 0)
(-0.884377 0.156161 0)
(-0.918327 0.154329 0)
(-0.952082 0.152338 8.19646e-23)
(-0.985663 0.15024 1.04744e-19)
(-1.01909 0.148083 2.04048e-19)
(-1.05237 0.145907 -1.99023e-19)
(-1.08553 0.143744 -9.70927e-20)
(-1.11856 0.14162 9.49758e-20)
(-1.15146 0.139547 -1.22378e-22)
(-1.18423 0.137529 9.07495e-20)
(-1.21686 0.135564 0)
(-1.24936 0.133648 8.70482e-20)
(-1.28173 0.131776 -1.42731e-22)
(-1.31396 0.129942 0)
(-1.34605 0.128137 0)
(-1.37799 0.126355 -8.06233e-20)
(-1.40978 0.124587 0)
(-1.4414 0.122825 0)
(-1.47286 0.121061 7.6314e-20)
(-1.50412 0.119288 1.50381e-19)
(-1.53519 0.117498 -7.41131e-20)
(-1.56604 0.115684 0)
(-1.59666 0.11384 7.17588e-20)
(-1.62703 0.111958 0)
(-1.65712 0.110034 6.92253e-20)
(-1.68692 0.108063 6.84816e-20)
(-1.7164 0.106039 -1.3458e-19)
(-1.74553 0.10396 -6.61269e-20)
(-1.7743 0.101821 0)
(-1.80266 0.09962 1.28667e-19)
(-1.8306 0.0973545 0)
(-1.85808 0.0950227 1.87531e-19)
(-1.88507 0.0926233 1.23102e-19)
(-1.91155 0.0901554 1.21308e-19)
(-1.93747 0.0876189 -1.19539e-19)
(-1.9628 0.0850137 1.7682e-19)
(-1.98752 0.0823405 0)
(-2.01158 0.0796002 0)
(-2.03495 0.076794 -1.12655e-19)
(-2.0576 0.0739235 -1.66564e-19)
(-2.07949 0.0709906 0)
(-2.10059 0.0679975 5.39101e-20)
(-2.12086 0.0649465 0)
(-2.14026 0.0618401 -1.56505e-19)
(-2.15877 0.0586813 -1.70789e-22)
(-2.17635 0.0554728 1.58362e-22)
(-2.19295 0.0522177 9.92516e-20)
(-2.20856 0.0489192 0)
(-2.22314 0.0455801 -9.5868e-20)
(-2.23665 0.0422035 -1.04804e-22)
(-2.24907 0.0387921 0)
(-2.26036 0.035349 0)
(-2.27051 0.0318773 0)
(-2.27948 0.0283804 8.72261e-20)
(-2.28726 0.0248624 0)
(-2.29382 0.0213284 0)
(-2.29916 0.0177859 0)
(-2.30326 0.014245 0)
(-2.30613 0.0107203 0)
(-2.30777 0.00723247 7.61278e-20)
(-2.30817 0.00380222 0)
(-2.30728 0.000430897 7.20918e-20)
(-2.30505 -0.0029096 7.00503e-20)
(-2.30141 -0.00623352 -6.79833e-20)
(-2.29634 -0.00953251 0)
(-2.28982 -0.0128031 -6.3769e-20)
(-2.28182 -0.0160429 0)
(-2.27234 -0.0192488 -5.9443e-20)
(-2.26137 -0.0224175 5.72371e-20)
(-2.24888 -0.0255455 1.65449e-19)
(-2.23488 -0.0286294 0)
(-2.21937 -0.0316654 1.51846e-19)
(-2.20233 -0.0346503 4.86669e-20)
(-2.18377 -0.0375806 0)
(-2.16368 -0.0404532 8.73918e-20)
(-2.14207 -0.0432648 8.26051e-20)
(-2.11895 -0.0460126 -1.16302e-19)
(-2.09431 -0.0486936 0)
(-2.06817 -0.0513052 -3.3579e-20)
(-2.04054 -0.0538451 -3.10558e-20)
(-2.01142 -0.0563109 -8.63197e-20)
(-1.98084 -0.0587001 0)
(-1.9488 -0.06101 0)
(-1.91532 -0.0632379 0)
(-1.88042 -0.0653815 -1.89624e-20)
(-1.84413 -0.0674387 0)
(-1.80645 -0.0694077 0)
(-1.76743 -0.071287 9.93503e-21)
(-1.72708 -0.0730756 7.18778e-21)
(-1.68543 -0.0747733 0)
(-1.64251 -0.07638 0)
(-1.59836 -0.0778968 -2.3561e-21)
(-1.55299 -0.0793238 0)
(-1.50646 -0.0806603 1.37002e-20)
(-1.45878 -0.0819021 1.82593e-20)
(-1.41 -0.0830447 0)
(-1.36016 -0.0840926 0)
(-1.30929 -0.0850497 -3.55634e-20)
(-1.25743 -0.0859139 -1.2399e-21)
(-1.20463 -0.0866825 -1.25643e-21)
(-1.15093 -0.0873567 0)
(-1.09638 -0.0879377 -1.19304e-19)
(-1.04102 -0.088427 0)
(-0.984895 -0.088826 0)
(-0.928052 -0.0891361 0)
(-0.870538 -0.0893593 8.41067e-20)
(-0.812399 -0.0894975 0)
(-0.753684 -0.089553 -1.89456e-19)
(-0.694439 -0.0895281 -1.02083e-19)
(-0.63471 -0.0894256 0)
(-0.574544 -0.0892485 -1.14092e-19)
(-0.513986 -0.089 0)
(-0.453081 -0.0886834 0)
(-0.391873 -0.0883024 -3.93492e-19)
(-0.330403 -0.0878605 2.73369e-19)
(-0.268713 -0.0873617 0)
(-0.206842 -0.0868099 2.97246e-19)
(-0.144826 -0.0862083 -1.55975e-19)
(-0.0827021 -0.0855603 0)
(-0.0205015 -0.0848702 0)
(0.0417479 -0.0841424 0)
(0.104014 -0.08338 -5.23632e-19)
(0.166265 -0.0825784 0)
(0.228471 -0.0817384 -1.81919e-19)
(0.290621 -0.0808658 0)
(0.352705 -0.0799546 0)
(0.414695 -0.0789991 0)
(0.47657 -0.0780178 0)
(0.538321 -0.0770335 0)
(0.599923 -0.0760474 0)
(0.661345 -0.0750447 -4.02636e-19)
(0.722547 -0.0739977 0)
(0.783463 -0.0728579 -2.07544e-19)
(0.843979 -0.0715431 6.27609e-19)
(0.903919 -0.0699012 0)
(0.962894 -0.0676463 0)
(1.02063 -0.0641764 -4.31789e-19)
(1.07527 -0.0583154 -4.3897e-19)
(1.1298 -0.0473376 4.44345e-19)
(1.17191 -0.0241717 4.57697e-19)
(0.00227076 -0.0561933 -3.13681e-18)
(0.00338099 -0.0575724 -1.65094e-18)
(0.00116612 -0.0447773 -6.43806e-19)
(-0.00284577 -0.030852 -2.29283e-19)
(-0.00825436 -0.0173151 0)
(-0.014864 -0.0043832 3.22443e-19)
(-0.0225668 0.00788763 -1.46071e-19)
(-0.0313327 0.0194615 0)
(-0.041187 0.0303265 -1.28802e-19)
(-0.0521869 0.0405044 0)
(-0.064409 0.0500545 2.38851e-19)
(-0.0779389 0.059074 0)
(-0.0928602 0.0676948 1.1269e-19)
(-0.109244 0.076071 2.19151e-19)
(-0.127139 0.0843584 -2.13012e-19)
(-0.146571 0.0926928 0)
(-0.167535 0.101174 -2.00781e-19)
(-0.190002 0.109854 0)
(-0.213919 0.11874 0)
(-0.239207 0.12779 -1.82586e-19)
(-0.265761 0.136925 0)
(-0.293448 0.146036 7.65599e-23)
(-0.322114 0.154998 0)
(-0.351592 0.163672 0)
(-0.381707 0.171916 -4.66328e-23)
(-0.41229 0.179596 -1.47532e-19)
(-0.443182 0.186596 -1.42081e-19)
(-0.474245 0.192823 -1.36873e-19)
(-0.505362 0.198214 0)
(-0.53644 0.202732 -2.54141e-19)
(-0.567402 0.20636 0)
(-0.598197 0.20911 -1.18173e-19)
(-0.628791 0.211013 0)
(-0.659168 0.212121 0)
(-0.689336 0.212498 1.06482e-19)
(-0.719314 0.212231 0)
(-0.749124 0.211408 -9.98336e-20)
(-0.778789 0.210113 2.37852e-23)
(-0.808336 0.208429 1.87925e-19)
(-0.837789 0.206432 -1.82616e-19)
(-0.867174 0.204192 0)
(-0.89651 0.201774 0)
(-0.925814 0.199232 -8.42296e-20)
(-0.955099 0.196615 0)
(-0.984374 0.193962 -8.01743e-20)
(-1.01365 0.191306 7.83099e-20)
(-1.04291 0.188671 7.65419e-20)
(-1.07217 0.186075 0)